 Entering Gaussian System, Link 0=g16
 Input=FeFeFe-B-1xH2O-opt.gjf
 Output=FeFeFe-B-1xH2O-opt.log
 AtFile(1): /zfs/curium/svicchi/00-MOF/01-Gaussian/zw-basis-set/def2-TZVP/H.gbs
            !----------------------------------------------------------------------
            ! Basis Set Exchange
            ! Version v0.9
            ! https://www.basissetexchange.org
            !----------------------------------------------------------------------
            !   Basis set: def2-TZVP
            ! Description: def2-TZVP
            !        Role: orbital
            !     Version: 1  (Data from Turbomole 7.3)
            !----------------------------------------------------------------------
            H     0
            S    3   1.00
                 34.0613410              0.60251978D-02
                  5.1235746              0.45021094D-01
                  1.1646626              0.20189726
            S    1   1.00
                  0.32723041             1.0000000
            S    1   1.00
                  0.10307241             1.0000000
            P    1   1.00
                  0.8000000              1.0000000
 AtFile(1): /zfs/curium/svicchi/00-MOF/01-Gaussian/zw-basis-set/def2-TZVP/O.gbs
            !----------------------------------------------------------------------
            ! Basis Set Exchange
            ! Version v0.9
            ! https://www.basissetexchange.org
            !----------------------------------------------------------------------
            !   Basis set: def2-TZVP
            ! Description: def2-TZVP
            !        Role: orbital
            !     Version: 1  (Data from Turbomole 7.3)
            !----------------------------------------------------------------------
            O     0
            S    6   1.00
              27032.3826310              0.21726302465D-03
               4052.3871392              0.16838662199D-02
                922.32722710             0.87395616265D-02
                261.24070989             0.35239968808D-01
                 85.354641351            0.11153519115
                 31.035035245            0.25588953961
            S    2   1.00
                 12.260860728            0.39768730901
                  4.9987076005           0.24627849430
            S    1   1.00
                  1.1703108158           1.0000000
            S    1   1.00
                  0.46474740994          1.0000000
            S    1   1.00
                  0.18504536357          1.0000000
            P    4   1.00
                 63.274954801            0.60685103418D-02
                 14.627049379            0.41912575824D-01
                  4.4501223456           0.16153841088
                  1.5275799647           0.35706951311
            P    1   1.00
                  0.52935117943           .44794207502
            P    1   1.00
                  0.17478421270           .24446069663
            D    1   1.00
                  2.31400000             1.0000000
            D    1   1.00
                  0.64500000             1.0000000
            F    1   1.00
                  1.42800000             1.0000000
 AtFile(1): /zfs/curium/svicchi/00-MOF/01-Gaussian/zw-basis-set/def2-TZVP/C.gbs
            !----------------------------------------------------------------------
            ! Basis Set Exchange
            ! Version v0.9
            ! https://www.basissetexchange.org
            !----------------------------------------------------------------------
            !   Basis set: def2-TZVP
            ! Description: def2-TZVP
            !        Role: orbital
            !     Version: 1  (Data from Turbomole 7.3)
            !----------------------------------------------------------------------
            C     0
            S    6   1.00
              13575.3496820              0.22245814352D-03
               2035.2333680              0.17232738252D-02
                463.22562359             0.89255715314D-02
                131.20019598             0.35727984502D-01
                 42.853015891            0.11076259931
                 15.584185766            0.24295627626
            S    2   1.00
                  6.2067138508           0.41440263448
                  2.5764896527           0.23744968655
            S    1   1.00
                  0.57696339419          1.0000000
            S    1   1.00
                  0.22972831358          1.0000000
            S    1   1.00
                  0.95164440028D-01      1.0000000
            P    4   1.00
                 34.697232244            0.53333657805D-02
                  7.9582622826           0.35864109092D-01
                  2.3780826883           0.14215873329
                  0.81433208183          0.34270471845
            P    1   1.00
                  0.28887547253           .46445822433
            P    1   1.00
                  0.10056823671           .24955789874
            D    1   1.00
                  1.09700000             1.0000000
            D    1   1.00
                  0.31800000             1.0000000
            F    1   1.00
                  0.76100000             1.0000000
 AtFile(1): /zfs/curium/svicchi/00-MOF/01-Gaussian/zw-basis-set/def2-TZVP/Fe.gbs
            !----------------------------------------------------------------------
            ! Basis Set Exchange
            ! Version v0.9
            ! https://www.basissetexchange.org
            !----------------------------------------------------------------------
            !   Basis set: def2-TZVP
            ! Description: def2-TZVP
            !        Role: orbital
            !     Version: 1  (Data from Turbomole 7.3)
            !----------------------------------------------------------------------
            Fe     0
            S    8   1.00
             300784.8463700              0.22806273096D-03
              45088.9705570              0.17681788761D-02
              10262.5163170              0.91927083490D-02
               2905.2897293              0.37355495807D-01
                946.11487137             0.12151108426
                339.87832894             0.28818881468
                131.94425588             0.41126612677
                 52.111494077            0.21518583573
            S    4   1.00
                329.48839267            -0.24745216477D-01
                101.92332739            -0.11683089050
                 16.240462745            0.55293621136
                  6.8840675801           0.53601640182
            S    2   1.00
                 10.470693782           -0.22912708577
                  1.7360039648           0.71159319984
            S    1   1.00
                  0.72577288979          1.0000000
            S    1   1.00
                  0.11595528203          1.0000000
            S    1   1.00
                  0.41968227746D-01      1.0000000
            P    6   1.00
               1585.3959970              0.23793960179D-02
                375.38006499             0.19253154755D-01
                120.31816501             0.90021836536D-01
                 44.788749031            0.25798172356
                 17.829278584            0.41492649744
                  7.2247153786           0.24207474784
            P    3   1.00
                 28.143219756           -0.29041755152D-01
                  3.8743241412           0.55312260343
                  1.5410752281           0.96771136842
            P    1   1.00
                  0.58285615250          1.0000000
            P    1   1.00
                  0.1349150              1.0000000
            D    4   1.00
                 61.996675034            0.11971972255D-01
                 17.873732552            0.73210135410D-01
                  6.2744782934           0.23103094314
                  2.3552337175           0.39910706494
            D    1   1.00
                  0.85432239901           .41391589765
            D    1   1.00
                  0.27869254413           .21909269782
            D    1   1.00
                  0.0910000              1.0000000
            F    1   1.00
                  1.5980000              1.0000000
 AtFile(1): /zfs/curium/svicchi/00-MOF/01-Gaussian/zw-basis-set/def2-TZVP/N.gbs
            !----------------------------------------------------------------------
            ! Basis Set Exchange
            ! Version v0.9
            ! https://www.basissetexchange.org
            !----------------------------------------------------------------------
            !   Basis set: def2-TZVP
            ! Description: def2-TZVP
            !        Role: orbital
            !     Version: 1  (Data from Turbomole 7.3)
            !----------------------------------------------------------------------
            N     0
            S    6   1.00
              19730.8006470              0.21887984991D-03
               2957.8958745              0.16960708803D-02
                673.22133595             0.87954603538D-02
                190.68249494             0.35359382605D-01
                 62.295441898            0.11095789217
                 22.654161182            0.24982972552
            S    2   1.00
                  8.9791477428           0.40623896148
                  3.6863002370           0.24338217176
            S    1   1.00
                  0.84660076805          1.0000000
            S    1   1.00
                  0.33647133771          1.0000000
            S    1   1.00
                  0.13647653675          1.0000000
            P    4   1.00
                 49.200380510            0.55552416751D-02
                 11.346790537            0.38052379723D-01
                  3.4273972411           0.14953671029
                  1.1785525134           0.34949305230
            P    1   1.00
                  0.41642204972           .45843153697
            P    1   1.00
                  0.14260826011           .24428771672
            D    1   1.00
                  1.65400000             1.0000000
            D    1   1.00
                  0.46900000             1.0000000
            F    1   1.00
                  1.09300000             1.0000000
 Initial command:
 /software/commercial/gaussian/g16/AVX2/g16/l1.exe "/scratch1/svicchi/G09-83793.pbs02/Gau-53859.inp" -scrdir="/scratch1/svicchi/G09-83793.pbs02/"
 Entering Link 1 = /software/commercial/gaussian/g16/AVX2/g16/l1.exe PID=     53860.
  
 Copyright (c) 1988-2021, Gaussian, Inc.  All Rights Reserved.
  
 This is part of the Gaussian(R) 16 program.  It is based on
 the Gaussian(R) 09 system (copyright 2009, Gaussian, Inc.),
 the Gaussian(R) 03 system (copyright 2003, Gaussian, Inc.),
 the Gaussian(R) 98 system (copyright 1998, Gaussian, Inc.),
 the Gaussian(R) 94 system (copyright 1995, Gaussian, Inc.),
 the Gaussian 92(TM) system (copyright 1992, Gaussian, Inc.),
 the Gaussian 90(TM) system (copyright 1990, Gaussian, Inc.),
 the Gaussian 88(TM) system (copyright 1988, Gaussian, Inc.),
 the Gaussian 86(TM) system (copyright 1986, Carnegie Mellon
 University), and the Gaussian 82(TM) system (copyright 1983,
 Carnegie Mellon University). Gaussian is a federally registered
 trademark of Gaussian, Inc.
  
 This software contains proprietary and confidential information,
 including trade secrets, belonging to Gaussian, Inc.
  
 This software is provided under written license and may be
 used, copied, transmitted, or stored only in accord with that
 written license.
  
 The following legend is applicable only to US Government
 contracts under FAR:
  
                    RESTRICTED RIGHTS LEGEND
  
 Use, reproduction and disclosure by the US Government is
 subject to restrictions as set forth in subparagraphs (a)
 and (c) of the Commercial Computer Software - Restricted
 Rights clause in FAR 52.227-19.
  
 Gaussian, Inc.
 340 Quinnipiac St., Bldg. 40, Wallingford CT 06492
  
  
 ---------------------------------------------------------------
 Warning -- This program may not be used in any manner that
 competes with the business of Gaussian, Inc. or will provide
 assistance to any competitor of Gaussian, Inc.  The licensee
 of this program is prohibited from giving any competitor of
 Gaussian, Inc. access to this program.  By using this program,
 the user acknowledges that Gaussian, Inc. is engaged in the
 business of creating and licensing software in the field of
 computational chemistry and represents and warrants to the
 licensee that it is not a competitor of Gaussian, Inc. and that
 it will not use this program in any manner prohibited above.
 ---------------------------------------------------------------
  

 Cite this work as:
 Gaussian 16, Revision C.02,
 M. J. Frisch, G. W. Trucks, H. B. Schlegel, G. E. Scuseria, 
 M. A. Robb, J. R. Cheeseman, G. Scalmani, V. Barone, 
 G. A. Petersson, H. Nakatsuji, X. Li, M. Caricato, A. V. Marenich, 
 J. Bloino, B. G. Janesko, R. Gomperts, B. Mennucci, H. P. Hratchian, 
 J. V. Ortiz, A. F. Izmaylov, J. L. Sonnenberg, D. Williams-Young, 
 F. Ding, F. Lipparini, F. Egidi, J. Goings, B. Peng, A. Petrone, 
 T. Henderson, D. Ranasinghe, V. G. Zakrzewski, J. Gao, N. Rega, 
 G. Zheng, W. Liang, M. Hada, M. Ehara, K. Toyota, R. Fukuda, 
 J. Hasegawa, M. Ishida, T. Nakajima, Y. Honda, O. Kitao, H. Nakai, 
 T. Vreven, K. Throssell, J. A. Montgomery, Jr., J. E. Peralta, 
 F. Ogliaro, M. J. Bearpark, J. J. Heyd, E. N. Brothers, K. N. Kudin, 
 V. N. Staroverov, T. A. Keith, R. Kobayashi, J. Normand, 
 K. Raghavachari, A. P. Rendell, J. C. Burant, S. S. Iyengar, 
 J. Tomasi, M. Cossi, J. M. Millam, M. Klene, C. Adamo, R. Cammi, 
 J. W. Ochterski, R. L. Martin, K. Morokuma, O. Farkas, 
 J. B. Foresman, and D. J. Fox, Gaussian, Inc., Wallingford CT, 2019.
 
 ******************************************
 Gaussian 16:  ES64L-G16RevC.02  7-Dec-2021
                30-Jan-2023 
 ******************************************
 %NProcShared=2
 Will use up to    2 processors via shared memory.
 %mem=110gb
 %chk=/scratch1/svicchi/G09-83793.pbs02/00-opt/FeFeFe-B-1xH2O-opt.chk
 ----------------------------------------------------------------------
 #p opt=(cartesian,maxcycle=500) gen um06l int=grid=ultrafine scf=(xqc,
 intrep,maxconventionalcycle=150) pop=(hirshfeld) nosymm
 ----------------------------------------------------------------------
 1/6=500,10=7,18=10,26=4,38=1/1,3;
 2/12=2,15=1,17=6,18=5,29=2,40=1/2;
 3/5=7,11=2,25=1,30=1,71=1,74=-53,75=-5,116=2/1,2,3;
 4//1;
 5/5=2,8=3,13=1,17=20,38=5,85=150/2,8;
 6/7=2,8=2,9=2,10=2,28=1,79=1/1;
 7/7=1,29=1,30=1/1,2,3,16;
 1/6=500,10=7,18=10,26=4/3(2);
 2/15=1,29=1/2;
 99/12=1/99;
 2/15=1,29=1/2;
 3/5=7,6=1,11=2,25=1,30=1,71=1,74=-53,75=-5,82=7,116=2/1,2,3;
 4/5=5,16=3,69=1/1;
 5/5=2,8=3,13=1,17=20,38=5,85=150/2,8;
 7/7=1,30=1/1,2,3,16;
 1/6=500,18=10,26=4/3(-5);
 2/15=1,29=1/2;
 6/7=2,8=2,9=2,10=2,19=2,28=1,79=1/1;
 99/9=1,12=1/99;
 Leave Link    1 at Mon Jan 30 16:44:55 2023, MaxMem= 14763950080 cpu:               0.0 elap:               0.1
 (Enter /software/commercial/gaussian/g16/AVX2/g16/l101.exe)
 --------------
 FeFeFe-B-1xH2O
 --------------
 Symbolic Z-matrix:
 Charge =  0 Multiplicity =15
 O                     1.7193   -2.12142  -1.58716 
 O                    -0.47698  -2.49574  -1.21444 
 C                     0.60347  -2.69167  -1.78718 
 H                     0.61808  -3.46116  -2.57825 
 O                     1.89072   2.14777   1.15994 
 O                     3.03879   0.21097   1.17222 
 C                     2.82175   1.39587   1.52351 
 H                     3.54529   1.8197    2.24076 
 O                    -2.14733  -0.10683  -1.49687 
 O                     2.70028   0.4757   -1.56682 
 O                     1.36145   2.28234  -1.61933 
 C                     2.31654   1.573    -2.02197 
 H                     2.88524   1.96943  -2.88072 
 O                    -0.56126  -2.09299   1.70768 
 O                     1.64164  -2.19114   1.21953 
 C                     0.61452  -2.44475   1.9065 
 H                     0.78888  -3.06607   2.80184 
 Fe                   -1.41331  -1.13925   0.10927 
 O                    -2.20011   0.27122   1.46108 
 Fe                    0.12895   1.91411   0.01388 
 O                    -0.9041    2.10485   1.69796 
 O                    -1.46399   2.01728  -1.14982 
 Fe                    1.89061  -0.77571  -0.15912 
 O                     0.22786   0.01707  -0.01878 
 C                    -1.83919   1.31444   2.02337 
 H                    -2.40116   1.61298   2.92599 
 C                    -2.10762   1.10861  -1.74731 
 H                    -2.71775   1.44968  -2.6009 
 N                    -5.54511  -0.10034   0.50859 
 N                    -4.98259   0.6273   -0.08581 
 O                    -2.74636  -2.05046   0.20037 
 O                     0.2601    4.09505   0.06622 
 H                     0.86302   4.30201  -0.66014 
 H                     0.74889   4.29281   0.87545 
 
 ITRead=  0  0  0  0  0  0  0  0  0  0  0  0  0  0  0  0  0  0  0  0
 ITRead=  0  0  0  0  0  0  0  0  0  0  0  0  0  0
 MicOpt= -1 -1 -1 -1 -1 -1 -1 -1 -1 -1 -1 -1 -1 -1 -1 -1 -1 -1 -1 -1
 MicOpt= -1 -1 -1 -1 -1 -1 -1 -1 -1 -1 -1 -1 -1 -1
 NAtoms=     34 NQM=       34 NQMF=       0 NMMI=      0 NMMIF=      0
                NMic=       0 NMicF=      0.
                    Isotopes and Nuclear Properties:
 (Nuclear quadrupole moments (NQMom) in fm**2, nuclear magnetic moments (NMagM)
  in nuclear magnetons)

  Atom         1           2           3           4           5           6           7           8           9          10
 IAtWgt=          16          16          12           1          16          16          12           1          16          16
 AtmWgt=  15.9949146  15.9949146  12.0000000   1.0078250  15.9949146  15.9949146  12.0000000   1.0078250  15.9949146  15.9949146
 NucSpn=           0           0           0           1           0           0           0           1           0           0
 AtZEff=  -0.0000000  -0.0000000  -0.0000000  -0.0000000  -0.0000000  -0.0000000  -0.0000000  -0.0000000  -0.0000000  -0.0000000
 NQMom=    0.0000000   0.0000000   0.0000000   0.0000000   0.0000000   0.0000000   0.0000000   0.0000000   0.0000000   0.0000000
 NMagM=    0.0000000   0.0000000   0.0000000   2.7928460   0.0000000   0.0000000   0.0000000   2.7928460   0.0000000   0.0000000
 AtZNuc=   8.0000000   8.0000000   6.0000000   1.0000000   8.0000000   8.0000000   6.0000000   1.0000000   8.0000000   8.0000000

  Atom        11          12          13          14          15          16          17          18          19          20
 IAtWgt=          16          12           1          16          16          12           1          56          16          56
 AtmWgt=  15.9949146  12.0000000   1.0078250  15.9949146  15.9949146  12.0000000   1.0078250  55.9349393  15.9949146  55.9349393
 NucSpn=           0           0           1           0           0           0           1           0           0           0
 AtZEff=  -0.0000000  -0.0000000  -0.0000000  -0.0000000  -0.0000000  -0.0000000  -0.0000000  -0.0000000  -0.0000000  -0.0000000
 NQMom=    0.0000000   0.0000000   0.0000000   0.0000000   0.0000000   0.0000000   0.0000000   0.0000000   0.0000000   0.0000000
 NMagM=    0.0000000   0.0000000   2.7928460   0.0000000   0.0000000   0.0000000   2.7928460   0.0000000   0.0000000   0.0000000
 AtZNuc=   8.0000000   6.0000000   1.0000000   8.0000000   8.0000000   6.0000000   1.0000000  26.0000000   8.0000000  26.0000000

  Atom        21          22          23          24          25          26          27          28          29          30
 IAtWgt=          16          16          56          16          12           1          12           1          14          14
 AtmWgt=  15.9949146  15.9949146  55.9349393  15.9949146  12.0000000   1.0078250  12.0000000   1.0078250  14.0030740  14.0030740
 NucSpn=           0           0           0           0           0           1           0           1           2           2
 AtZEff=  -0.0000000  -0.0000000  -0.0000000  -0.0000000  -0.0000000  -0.0000000  -0.0000000  -0.0000000  -0.0000000  -0.0000000
 NQMom=    0.0000000   0.0000000   0.0000000   0.0000000   0.0000000   0.0000000   0.0000000   0.0000000   2.0440000   2.0440000
 NMagM=    0.0000000   0.0000000   0.0000000   0.0000000   0.0000000   2.7928460   0.0000000   2.7928460   0.4037610   0.4037610
 AtZNuc=   8.0000000   8.0000000  26.0000000   8.0000000   6.0000000   1.0000000   6.0000000   1.0000000   7.0000000   7.0000000

  Atom        31          32          33          34
 IAtWgt=          16          16           1           1
 AtmWgt=  15.9949146  15.9949146   1.0078250   1.0078250
 NucSpn=           0           0           1           1
 AtZEff=  -0.0000000  -0.0000000  -0.0000000  -0.0000000
 NQMom=    0.0000000   0.0000000   0.0000000   0.0000000
 NMagM=    0.0000000   0.0000000   2.7928460   2.7928460
 AtZNuc=   8.0000000   8.0000000   1.0000000   1.0000000
 Leave Link  101 at Mon Jan 30 16:44:56 2023, MaxMem= 14763950080 cpu:               0.1 elap:               0.1
 (Enter /software/commercial/gaussian/g16/AVX2/g16/l103.exe)

 GradGradGradGradGradGradGradGradGradGradGradGradGradGradGradGradGradGrad
 Berny optimization.
 Initialization pass.
 No Z-matrix variables, so optimization will use Cartesian coordinates.
 Trust Radius=3.00D-01 FncErr=1.00D-07 GrdErr=1.00D-06 EigMax=2.50D+02 EigMin=1.00D-04
 Number of steps in this run=    204 maximum allowed number of steps=    204.
 GradGradGradGradGradGradGradGradGradGradGradGradGradGradGradGradGradGrad

 Leave Link  103 at Mon Jan 30 16:44:56 2023, MaxMem= 14763950080 cpu:               0.1 elap:               0.1
 (Enter /software/commercial/gaussian/g16/AVX2/g16/l202.exe)
 ---------------------------------------------------------------------------------------------------
                            Z-MATRIX (ANGSTROMS AND DEGREES)
   CD    Cent   Atom    N1       Length/X        N2       Alpha/Y        N3        Beta/Z          J
 ---------------------------------------------------------------------------------------------------
      1      1  O        0   1.719299         -2.121416         -1.587160
      2      2  O        0  -0.476982         -2.495739         -1.214444
      3      3  C        0   0.603470         -2.691674         -1.787175
      4      4  H        0   0.618079         -3.461158         -2.578246
      5      5  O        0   1.890722          2.147768          1.159944
      6      6  O        0   3.038791          0.210968          1.172216
      7      7  C        0   2.821748          1.395867          1.523514
      8      8  H        0   3.545289          1.819699          2.240758
      9      9  O        0  -2.147334         -0.106827         -1.496866
     10     10  O        0   2.700282          0.475697         -1.566819
     11     11  O        0   1.361445          2.282339         -1.619333
     12     12  C        0   2.316544          1.573004         -2.021967
     13     13  H        0   2.885238          1.969427         -2.880717
     14     14  O        0  -0.561258         -2.092988          1.707679
     15     15  O        0   1.641641         -2.191137          1.219534
     16     16  C        0   0.614516         -2.444745          1.906501
     17     17  H        0   0.788877         -3.066072          2.801842
     18     18  Fe       0  -1.413309         -1.139251          0.109271
     19     19  O        0  -2.200113          0.271216          1.461080
     20     20  Fe       0   0.128950          1.914114          0.013878
     21     21  O        0  -0.904099          2.104849          1.697957
     22     22  O        0  -1.463991          2.017276         -1.149819
     23     23  Fe       0   1.890613         -0.775712         -0.159116
     24     24  O        0   0.227856          0.017067         -0.018780
     25     25  C        0  -1.839186          1.314437          2.023374
     26     26  H        0  -2.401164          1.612984          2.925989
     27     27  C        0  -2.107622          1.108608         -1.747308
     28     28  H        0  -2.717752          1.449683         -2.600897
     29     29  N        0  -5.545114         -0.100340          0.508588
     30     30  N        0  -4.982586          0.627297         -0.085807
     31     31  O        0  -2.746357         -2.050465          0.200371
     32     32  O        0   0.260095          4.095051          0.066221
     33     33  H        0   0.863019          4.302013         -0.660140
     34     34  H        0   0.748892          4.292809          0.875454
 ---------------------------------------------------------------------------------------------------
                         Z-Matrix orientation:                         
 ---------------------------------------------------------------------
 Center     Atomic      Atomic             Coordinates (Angstroms)
 Number     Number       Type             X           Y           Z
 ---------------------------------------------------------------------
      1          8           0        1.719299   -2.121416   -1.587160
      2          8           0       -0.476982   -2.495739   -1.214444
      3          6           0        0.603470   -2.691674   -1.787175
      4          1           0        0.618079   -3.461158   -2.578246
      5          8           0        1.890722    2.147768    1.159944
      6          8           0        3.038791    0.210968    1.172216
      7          6           0        2.821748    1.395867    1.523514
      8          1           0        3.545289    1.819699    2.240758
      9          8           0       -2.147334   -0.106827   -1.496866
     10          8           0        2.700282    0.475697   -1.566819
     11          8           0        1.361445    2.282339   -1.619333
     12          6           0        2.316544    1.573004   -2.021967
     13          1           0        2.885238    1.969427   -2.880717
     14          8           0       -0.561258   -2.092988    1.707679
     15          8           0        1.641641   -2.191137    1.219534
     16          6           0        0.614516   -2.444745    1.906501
     17          1           0        0.788877   -3.066072    2.801842
     18         26           0       -1.413309   -1.139251    0.109271
     19          8           0       -2.200113    0.271216    1.461080
     20         26           0        0.128950    1.914114    0.013878
     21          8           0       -0.904099    2.104849    1.697957
     22          8           0       -1.463991    2.017276   -1.149819
     23         26           0        1.890613   -0.775712   -0.159116
     24          8           0        0.227856    0.017067   -0.018780
     25          6           0       -1.839186    1.314437    2.023374
     26          1           0       -2.401164    1.612984    2.925989
     27          6           0       -2.107622    1.108608   -1.747308
     28          1           0       -2.717752    1.449683   -2.600897
     29          7           0       -5.545114   -0.100340    0.508588
     30          7           0       -4.982586    0.627297   -0.085807
     31          8           0       -2.746357   -2.050465    0.200371
     32          8           0        0.260095    4.095051    0.066221
     33          1           0        0.863019    4.302013   -0.660140
     34          1           0        0.748892    4.292809    0.875454
 ---------------------------------------------------------------------
                    Distance matrix (angstroms):
                    1          2          3          4          5
     1  O    0.000000
     2  O    2.258912   0.000000
     3  C    1.268966   1.238462   0.000000
     4  H    1.997460   1.997786   1.103681   0.000000
     5  O    5.079557   5.727643   5.810570   6.859573   0.000000
     6  O    3.846457   5.038161   4.807714   5.780166   2.251534
     7  C    4.823170   5.789873   5.708714   6.728394   1.250739
     8  H    5.789610   6.836672   6.725402   7.725206   2.003342
     9  O    4.360914   2.928607   3.785847   4.479780   5.333642
    10  O    2.776281   4.364471   3.804920   4.566988   3.299461
    11  O    4.418388   5.135541   5.034233   5.870253   2.832424
    12  C    3.767559   5.001055   4.601872   5.342005   3.261324
    13  H    4.446088   5.832555   5.303599   5.892601   4.165070
    14  O    4.007208   2.950951   3.732160   4.651008   4.929121
    15  O    2.808634   3.241234   3.220037   4.133251   4.346457
    16  C    3.678417   3.306700   3.701937   4.598485   4.824648
    17  H    4.584910   4.249498   4.607996   5.397278   5.576201
    18  Fe   3.695370   2.113998   3.173944   4.091520   4.777555
    19  O    5.511646   4.217066   5.214399   6.179723   4.510772
    20  Fe   4.623639   4.617654   4.968123   5.987646   2.114687
    21  O    5.961168   5.461677   6.117642   7.182156   2.846458
    22  O    5.239597   4.620137   5.182164   6.032301   4.075062
    23  Fe   1.969664   3.110903   2.824575   3.831860   3.207281
    24  O    3.042586   2.870645   3.256622   4.336034   2.948627
    25  C    6.124039   5.182326   6.044483   7.072437   3.918184
    26  H    7.161876   6.142253   7.054915   8.072134   4.671744
    27  C    5.010392   3.991773   4.668378   5.385412   5.051606
    28  H    5.785139   4.744434   5.370614   5.936720   5.989097
    29  N    7.826149   5.864532   7.056247   7.668676   7.795506
    30  N    7.397618   5.597110   6.716714   7.368525   7.148852
    31  O    4.810653   2.711094   3.947509   4.585869   6.328384
    32  O    6.596014   6.754398   7.043623   8.013592   2.765336
    33  H    6.546222   6.950704   7.088669   8.000372   3.001608
    34  H    6.938908   7.207970   7.476212   8.489356   2.446612
                    6          7          8          9         10
     6  O    0.000000
     7  C    1.254792   0.000000
     8  H    1.996581   1.103442   0.000000
     9  O    5.841308   6.006044   7.077238   0.000000
    10  O    2.772541   3.226705   4.125290   4.882992   0.000000
    11  O    3.859639   3.577122   4.459093   4.246721   2.249266
    12  C    3.546771   3.585672   4.443140   4.798309   1.248398
    13  H    4.420636   4.441875   5.166003   5.617175   1.997940
    14  O    4.307585   4.863204   5.697106   4.090181   5.287544
    15  O    2.779276   3.788358   4.555610   5.106810   3.999561
    16  C    3.670027   4.446218   5.185233   4.967553   4.994332
    17  H    4.296136   5.067108   5.637675   5.988101   5.939932
    18  Fe   4.772226   5.134454   6.155186   2.045573   4.726411
    19  O    5.247208   5.146632   6.001278   2.982473   5.764014
    20  Fe   3.565057   3.130294   4.079127   3.398238   3.343560
    21  O    4.405629   3.796712   4.491436   4.079711   5.128787
    22  O    5.378628   5.089245   6.052102   2.258144   4.459992
    23  Fe   2.016010   2.900692   3.903012   4.306042   2.050175
    24  O    3.058991   3.317836   4.400040   2.800288   2.952906
    25  C    5.073142   4.688368   5.412496   3.808810   5.848054
    26  H    5.885107   5.412290   5.989372   4.752244   6.892278
    27  C    5.984559   5.922794   6.954547   1.241604   4.852741
    28  H    6.993467   6.906499   7.924911   1.991729   5.601166
    29  N    8.615146   8.559970   9.451052   3.945478   8.522071
    30  N    8.130095   8.005513   8.919606   3.250951   7.825780
    31  O    6.287010   6.680696   7.663299   2.648994   6.258621
    32  O    4.902089   3.996419   4.549543   5.088687   4.660585
    33  H    4.982787   4.129243   4.666012   5.403721   4.340311
    34  H    4.689683   3.620633   3.974942   5.776922   4.933859
                   11         12         13         14         15
    11  O    0.000000
    12  C    1.255979   0.000000
    13  H    2.002735   1.103637   0.000000
    14  O    5.823168   5.969213   7.030998   0.000000
    15  O    5.305626   5.013141   5.972343   2.258469   0.000000
    16  C    5.944302   5.871292   6.896271   1.243265   1.261438
    17  H    6.962767   6.864687   7.876703   1.991720   1.999104
    18  Fe   4.732294   5.080384   6.089451   2.047074   3.416412
    19  O    5.120376   5.850338   6.898979   2.887234   4.569530
    20  Fe   2.078945   3.007755   3.997357   4.404795   4.538163
    21  O    4.021020   4.949064   5.944886   4.211825   5.016490
    22  O    2.876420   3.905184   4.681249   5.086698   5.741909
    23  Fe   3.429858   3.027887   3.991513   3.351389   1.991505
    24  O    2.996373   3.285775   4.366242   2.838255   2.899720
    25  C    4.944713   5.805319   6.841002   3.652849   5.005134
    26  H    5.938452   6.836712   7.860721   4.313208   5.807547
    27  C    3.664485   4.456944   5.191751   4.957660   5.809255
    28  H    4.277456   5.068975   5.633998   5.980369   6.845113
    29  N    7.609584   8.426711   9.318914   5.499753   7.518399
    30  N    6.733320   7.610544   8.456683   5.492239   7.316274
    31  O    6.241678   6.610694   7.574133   2.654890   4.506995
    32  O    2.709241   3.866553   4.482644   6.454520   6.538728
    33  H    2.290756   3.378579   3.802800   6.966432   6.804441
    34  H    3.262081   4.271993   4.906210   6.571719   6.554155
                   16         17         18         19         20
    16  C    0.000000
    17  H    1.103669   0.000000
    18  Fe   3.007727   3.976456   0.000000
    19  O    3.936620   4.676451   2.106149   0.000000
    20  Fe   4.776761   5.745476   3.422090   3.196567   0.000000
    21  O    4.800884   5.551860   3.647931   2.257869   1.984866
    22  O    5.794041   6.821398   3.398756   3.226049   1.975423
    23  Fe   2.946331   3.902159   3.334680   4.522735   3.220023
    24  O    3.149084   4.216207   2.011689   2.854752   1.899904
    25  C    4.490630   5.167358   3.140979   1.238851   2.875977
    26  H    5.157407   5.664392   4.060118   1.996678   3.869438
    27  C    5.778120   6.820002   2.996970   3.317157   2.958525
    28  H    6.825483   7.866262   3.968521   4.261032   3.893129
    29  N    6.737317   7.360300   4.279089   3.497760   6.041338
    30  N    6.688369   7.435676   3.987291   3.203406   5.271967
    31  O    3.789697   4.505218   1.617290   2.697772   4.901026
    32  O    6.803027   7.684069   5.495457   4.756046   2.185503
    33  H    7.222752   8.141222   5.948194   5.489051   2.587512
    34  H    6.817312   7.606951   5.896560   5.021235   2.604771
                   21         22         23         24         25
    21  O    0.000000
    22  O    2.903614   0.000000
    23  Fe   4.422303   4.476119   0.000000
    24  O    2.930417   2.853495   1.847418   0.000000
    25  C    1.266900   3.271683   4.800353   3.182173   0.000000
    26  H    1.997798   4.201661   5.800266   4.257976   1.104384
    27  C    3.782964   1.263698   4.696690   3.103825   3.785824
    28  H    4.711552   1.999926   5.670247   4.170890   4.708933
    29  N    5.274133   4.887758   7.496132   5.798197   4.246183
    30  N    4.690312   3.929971   7.015317   5.246483   3.847307
    31  O    4.785741   4.473700   4.822418   3.628865   3.933048
    32  O    2.824679   2.961144   5.141371   4.078997   3.996154
    33  H    3.675712   3.297694   5.204831   4.378988   4.840327
    34  H    2.862876   3.765187   5.297525   4.399216   4.109327
                   26         27         28         29         30
    26  H    0.000000
    27  C    4.709593   0.000000
    28  H    5.538354   1.103270   0.000000
    29  N    4.320154   4.285671   4.479447   0.000000
    30  N    4.087326   3.355244   3.483026   1.095079   0.000000
    31  O    4.579193   3.765791   4.483186   3.425059   3.500432
    32  O    4.628307   4.220641   4.793648   7.176172   6.287618
    33  H    5.544916   4.494939   4.972348   7.861985   6.928528
    34  H    4.616168   5.017737   5.673271   7.684326   6.870942
                   31         32         33         34
    31  O    0.000000
    32  O    6.842815   0.000000
    33  H    7.356769   0.966411   0.000000
    34  H    7.273900   0.965862   1.539857   0.000000
 Symmetry turned off by external request.
 Stoichiometry    C6H8Fe3N2O15(15)
 Framework group  C1[X(C6H8Fe3N2O15)]
 Deg. of freedom    96
 Full point group                 C1      NOp   1
 Rotational constants (GHZ):           0.2242078           0.1765764           0.1349547
 Leave Link  202 at Mon Jan 30 16:44:57 2023, MaxMem= 14763950080 cpu:               0.0 elap:               0.1
 (Enter /software/commercial/gaussian/g16/AVX2/g16/l301.exe)
 General basis read from cards:  (5D, 7F)
 Centers:       4      8     13     17     26     28     33     34
 S 3 1.00
     Exponent=  3.4061341000D+01 Coefficients=  6.0251978000D-03
     Exponent=  5.1235746000D+00 Coefficients=  4.5021094000D-02
     Exponent=  1.1646626000D+00 Coefficients=  2.0189726000D-01
 S 1 1.00
     Exponent=  3.2723041000D-01 Coefficients=  1.0000000000D+00
 S 1 1.00
     Exponent=  1.0307241000D-01 Coefficients=  1.0000000000D+00
 P 1 1.00
     Exponent=  8.0000000000D-01 Coefficients=  1.0000000000D+00
 ****
 Centers:       1      2      5      6      9     10     11     14     15     19
 Centers:      21     22     24     31     32
 S 6 1.00
     Exponent=  2.7032382631D+04 Coefficients=  2.1726302465D-04
     Exponent=  4.0523871392D+03 Coefficients=  1.6838662199D-03
     Exponent=  9.2232722710D+02 Coefficients=  8.7395616265D-03
     Exponent=  2.6124070989D+02 Coefficients=  3.5239968808D-02
     Exponent=  8.5354641351D+01 Coefficients=  1.1153519115D-01
     Exponent=  3.1035035245D+01 Coefficients=  2.5588953961D-01
 S 2 1.00
     Exponent=  1.2260860728D+01 Coefficients=  3.9768730901D-01
     Exponent=  4.9987076005D+00 Coefficients=  2.4627849430D-01
 S 1 1.00
     Exponent=  1.1703108158D+00 Coefficients=  1.0000000000D+00
 S 1 1.00
     Exponent=  4.6474740994D-01 Coefficients=  1.0000000000D+00
 S 1 1.00
     Exponent=  1.8504536357D-01 Coefficients=  1.0000000000D+00
 P 4 1.00
     Exponent=  6.3274954801D+01 Coefficients=  6.0685103418D-03
     Exponent=  1.4627049379D+01 Coefficients=  4.1912575824D-02
     Exponent=  4.4501223456D+00 Coefficients=  1.6153841088D-01
     Exponent=  1.5275799647D+00 Coefficients=  3.5706951311D-01
 P 1 1.00
     Exponent=  5.2935117943D-01 Coefficients=  4.4794207502D-01
 P 1 1.00
     Exponent=  1.7478421270D-01 Coefficients=  2.4446069663D-01
 D 1 1.00
     Exponent=  2.3140000000D+00 Coefficients=  1.0000000000D+00
 D 1 1.00
     Exponent=  6.4500000000D-01 Coefficients=  1.0000000000D+00
 F 1 1.00
     Exponent=  1.4280000000D+00 Coefficients=  1.0000000000D+00
 ****
 Centers:       3      7     12     16     25     27
 S 6 1.00
     Exponent=  1.3575349682D+04 Coefficients=  2.2245814352D-04
     Exponent=  2.0352333680D+03 Coefficients=  1.7232738252D-03
     Exponent=  4.6322562359D+02 Coefficients=  8.9255715314D-03
     Exponent=  1.3120019598D+02 Coefficients=  3.5727984502D-02
     Exponent=  4.2853015891D+01 Coefficients=  1.1076259931D-01
     Exponent=  1.5584185766D+01 Coefficients=  2.4295627626D-01
 S 2 1.00
     Exponent=  6.2067138508D+00 Coefficients=  4.1440263448D-01
     Exponent=  2.5764896527D+00 Coefficients=  2.3744968655D-01
 S 1 1.00
     Exponent=  5.7696339419D-01 Coefficients=  1.0000000000D+00
 S 1 1.00
     Exponent=  2.2972831358D-01 Coefficients=  1.0000000000D+00
 S 1 1.00
     Exponent=  9.5164440028D-02 Coefficients=  1.0000000000D+00
 P 4 1.00
     Exponent=  3.4697232244D+01 Coefficients=  5.3333657805D-03
     Exponent=  7.9582622826D+00 Coefficients=  3.5864109092D-02
     Exponent=  2.3780826883D+00 Coefficients=  1.4215873329D-01
     Exponent=  8.1433208183D-01 Coefficients=  3.4270471845D-01
 P 1 1.00
     Exponent=  2.8887547253D-01 Coefficients=  4.6445822433D-01
 P 1 1.00
     Exponent=  1.0056823671D-01 Coefficients=  2.4955789874D-01
 D 1 1.00
     Exponent=  1.0970000000D+00 Coefficients=  1.0000000000D+00
 D 1 1.00
     Exponent=  3.1800000000D-01 Coefficients=  1.0000000000D+00
 F 1 1.00
     Exponent=  7.6100000000D-01 Coefficients=  1.0000000000D+00
 ****
 Centers:      18     20     23
 S 8 1.00
     Exponent=  3.0078484637D+05 Coefficients=  2.2806273096D-04
     Exponent=  4.5088970557D+04 Coefficients=  1.7681788761D-03
     Exponent=  1.0262516317D+04 Coefficients=  9.1927083490D-03
     Exponent=  2.9052897293D+03 Coefficients=  3.7355495807D-02
     Exponent=  9.4611487137D+02 Coefficients=  1.2151108426D-01
     Exponent=  3.3987832894D+02 Coefficients=  2.8818881468D-01
     Exponent=  1.3194425588D+02 Coefficients=  4.1126612677D-01
     Exponent=  5.2111494077D+01 Coefficients=  2.1518583573D-01
 S 4 1.00
     Exponent=  3.2948839267D+02 Coefficients= -2.4745216477D-02
     Exponent=  1.0192332739D+02 Coefficients= -1.1683089050D-01
     Exponent=  1.6240462745D+01 Coefficients=  5.5293621136D-01
     Exponent=  6.8840675801D+00 Coefficients=  5.3601640182D-01
 S 2 1.00
     Exponent=  1.0470693782D+01 Coefficients= -2.2912708577D-01
     Exponent=  1.7360039648D+00 Coefficients=  7.1159319984D-01
 S 1 1.00
     Exponent=  7.2577288979D-01 Coefficients=  1.0000000000D+00
 S 1 1.00
     Exponent=  1.1595528203D-01 Coefficients=  1.0000000000D+00
 S 1 1.00
     Exponent=  4.1968227746D-02 Coefficients=  1.0000000000D+00
 P 6 1.00
     Exponent=  1.5853959970D+03 Coefficients=  2.3793960179D-03
     Exponent=  3.7538006499D+02 Coefficients=  1.9253154755D-02
     Exponent=  1.2031816501D+02 Coefficients=  9.0021836536D-02
     Exponent=  4.4788749031D+01 Coefficients=  2.5798172356D-01
     Exponent=  1.7829278584D+01 Coefficients=  4.1492649744D-01
     Exponent=  7.2247153786D+00 Coefficients=  2.4207474784D-01
 P 3 1.00
     Exponent=  2.8143219756D+01 Coefficients= -2.9041755152D-02
     Exponent=  3.8743241412D+00 Coefficients=  5.5312260343D-01
     Exponent=  1.5410752281D+00 Coefficients=  9.6771136842D-01
 P 1 1.00
     Exponent=  5.8285615250D-01 Coefficients=  1.0000000000D+00
 P 1 1.00
     Exponent=  1.3491500000D-01 Coefficients=  1.0000000000D+00
 D 4 1.00
     Exponent=  6.1996675034D+01 Coefficients=  1.1971972255D-02
     Exponent=  1.7873732552D+01 Coefficients=  7.3210135410D-02
     Exponent=  6.2744782934D+00 Coefficients=  2.3103094314D-01
     Exponent=  2.3552337175D+00 Coefficients=  3.9910706494D-01
 D 1 1.00
     Exponent=  8.5432239901D-01 Coefficients=  4.1391589765D-01
 D 1 1.00
     Exponent=  2.7869254413D-01 Coefficients=  2.1909269782D-01
 D 1 1.00
     Exponent=  9.1000000000D-02 Coefficients=  1.0000000000D+00
 F 1 1.00
     Exponent=  1.5980000000D+00 Coefficients=  1.0000000000D+00
 ****
 Centers:      29     30
 S 6 1.00
     Exponent=  1.9730800647D+04 Coefficients=  2.1887984991D-04
     Exponent=  2.9578958745D+03 Coefficients=  1.6960708803D-03
     Exponent=  6.7322133595D+02 Coefficients=  8.7954603538D-03
     Exponent=  1.9068249494D+02 Coefficients=  3.5359382605D-02
     Exponent=  6.2295441898D+01 Coefficients=  1.1095789217D-01
     Exponent=  2.2654161182D+01 Coefficients=  2.4982972552D-01
 S 2 1.00
     Exponent=  8.9791477428D+00 Coefficients=  4.0623896148D-01
     Exponent=  3.6863002370D+00 Coefficients=  2.4338217176D-01
 S 1 1.00
     Exponent=  8.4660076805D-01 Coefficients=  1.0000000000D+00
 S 1 1.00
     Exponent=  3.3647133771D-01 Coefficients=  1.0000000000D+00
 S 1 1.00
     Exponent=  1.3647653675D-01 Coefficients=  1.0000000000D+00
 P 4 1.00
     Exponent=  4.9200380510D+01 Coefficients=  5.5552416751D-03
     Exponent=  1.1346790537D+01 Coefficients=  3.8052379723D-02
     Exponent=  3.4273972411D+00 Coefficients=  1.4953671029D-01
     Exponent=  1.1785525134D+00 Coefficients=  3.4949305230D-01
 P 1 1.00
     Exponent=  4.1642204972D-01 Coefficients=  4.5843153697D-01
 P 1 1.00
     Exponent=  1.4260826011D-01 Coefficients=  2.4428771672D-01
 D 1 1.00
     Exponent=  1.6540000000D+00 Coefficients=  1.0000000000D+00
 D 1 1.00
     Exponent=  4.6900000000D-01 Coefficients=  1.0000000000D+00
 F 1 1.00
     Exponent=  1.0930000000D+00 Coefficients=  1.0000000000D+00
 ****
 Ernie: Thresh=  0.10000D-02 Tol=  0.10000D-05 Strict=F.
   896 basis functions,  1543 primitive gaussians,  1032 cartesian basis functions
   135 alpha electrons      121 beta electrons
       nuclear repulsion energy      4757.6078464805 Hartrees.
 IExCor= 4134 DFT=T Ex+Corr=M06L ExCW=0 ScaHFX=  0.000000
 ScaDFX=  1.000000  1.000000  1.000000  1.000000 ScalE2=  1.000000  1.000000
 IRadAn=      5 IRanWt=     -1 IRanGd=            0 ICorTp=0 IEmpDi=  4
 NAtoms=   34 NActive=   34 NUniq=   34 SFac= 1.00D+00 NAtFMM=   60 NAOKFM=F Big=F
 Integral buffers will be    131072 words long.
 Raffenetti 2 integral format.
 Two-electron integral symmetry is turned off.
 Leave Link  301 at Mon Jan 30 16:44:58 2023, MaxMem= 14763950080 cpu:               0.1 elap:               0.1
 (Enter /software/commercial/gaussian/g16/AVX2/g16/l302.exe)
 NPDir=0 NMtPBC=     1 NCelOv=     1 NCel=       1 NClECP=     1 NCelD=      1
         NCelK=      1 NCelE2=     1 NClLst=     1 CellRange=     0.0.
 One-electron integrals computed using PRISM.
 NBasis=   896 RedAO= T EigKep=  2.03D-04  NBF=   896
 NBsUse=   896 1.00D-06 EigRej= -1.00D+00 NBFU=   896
 Precomputing XC quadrature grid using
 IXCGrd= 4 IRadAn=           5 IRanWt=          -1 IRanGd=           0 AccXCQ= 0.00D+00.
 Generated NRdTot=       0 NPtTot=           0 NUsed=           0 NTot=          32
 NSgBfM=  1013  1013  1013  1013  1013 MxSgAt=    34 MxSgA2=    34.
 Leave Link  302 at Mon Jan 30 16:45:00 2023, MaxMem= 14763950080 cpu:               2.6 elap:               1.7
 (Enter /software/commercial/gaussian/g16/AVX2/g16/l303.exe)
 DipDrv:  MaxL=1.
 Leave Link  303 at Mon Jan 30 16:45:00 2023, MaxMem= 14763950080 cpu:               0.2 elap:               0.2
 (Enter /software/commercial/gaussian/g16/AVX2/g16/l401.exe)
 ExpMin= 4.20D-02 ExpMax= 3.01D+05 ExpMxC= 2.91D+03 IAcc=3 IRadAn=         5 AccDes= 0.00D+00
 Harris functional with IExCor= 1009 and IRadAn=       5 diagonalized for initial guess.
 HarFok:  IExCor= 1009 AccDes= 0.00D+00 IRadAn=         5 IDoV= 1 UseB2=F ITyADJ=14
 ICtDFT=  3500011 ScaDFX=  1.000000  1.000000  1.000000  1.000000
 FoFCou: FMM=F IPFlag=           0 FMFlag=      100000 FMFlg1=           0
         NFxFlg=           0 DoJE=T BraDBF=F KetDBF=T FulRan=T
         wScrn=  0.000000 ICntrl=       500 IOpCl=  0 I1Cent=   200000004 NGrid=           0
         NMat0=    1 NMatS0=      1 NMatT0=    0 NMatD0=    1 NMtDS0=    0 NMtDT0=    0
 Symmetry not used in FoFCou.
 Harris En= -5261.04910307072    
 JPrj=0 DoOrth=F DoCkMO=F.
 Initial guess <Sx>= 0.0000 <Sy>= 0.0000 <Sz>= 7.0000 <S**2>=56.0000 S= 7.0000
 Leave Link  401 at Mon Jan 30 16:45:17 2023, MaxMem= 14763950080 cpu:              31.8 elap:              16.4
 (Enter /software/commercial/gaussian/g16/AVX2/g16/l502.exe)
 Two-electron integral symmetry not used.
 UHF open shell SCF:
 Using DIIS extrapolation, IDIIS=  1040.
 NGot= 14763950080 LenX= 14761806610 LenY= 14760740554
 Requested convergence on RMS density matrix=1.00D-08 within 150 cycles.
 Requested convergence on MAX density matrix=1.00D-06.
 Requested convergence on             energy=1.00D-06.
 No special actions if energy rises.
 Fock matrices will be formed incrementally for  20 cycles.

 Cycle   1  Pass 1  IDiag  1:
 FoFJK:  IHMeth= 1 ICntrl=     500 DoSepK=F KAlg= 0 I1Cent=           0 FoldK=F
 IRaf= 770000000 NMat=       1 IRICut=       1 DoRegI=T DoRafI=F ISym2E= 0 IDoP0=0 IntGTp=1.
 FoFCou: FMM=F IPFlag=           0 FMFlag=      100000 FMFlg1=           0
         NFxFlg=           0 DoJE=T BraDBF=F KetDBF=F FulRan=T
         wScrn=  0.000000 ICntrl=       500 IOpCl=  0 I1Cent=           0 NGrid=           0
         NMat0=    1 NMatS0=      1 NMatT0=    0 NMatD0=    1 NMtDS0=    0 NMtDT0=    0
 Symmetry not used in FoFCou.
 E= -5261.57514676431    
 DIIS: error= 6.72D-02 at cycle   1 NSaved=   1.
 NSaved= 1 IEnMin= 1 EnMin= -5261.57514676431     IErMin= 1 ErrMin= 6.72D-02
 ErrMax= 6.72D-02  0.00D+00 EMaxC= 1.00D-01 BMatC= 1.35D+01 BMatP= 1.35D+01
 IDIUse=3 WtCom= 3.28D-01 WtEn= 6.72D-01
 Coeff-Com:  0.100D+01
 Coeff-En:   0.100D+01
 Coeff:      0.100D+01
 Gap=     0.090 Goal=   None    Shift=    0.000
 Gap=    -0.408 Goal=   None    Shift=    0.000
 GapD=   -0.408 DampG=0.250 DampE=0.250 DampFc=0.1250 IDamp=-1.
 Damping current iteration by 1.25D-01
 RMSDP=4.17D-03 MaxDP=1.12D+00              OVMax= 9.76D-01

 Cycle   2  Pass 1  IDiag  1:
 RMSU=  5.21D-04    CP:  9.98D-01
 E= -5262.18619091364     Delta-E=       -0.611044149337 Rises=F Damp=T
 DIIS: error= 2.20D-02 at cycle   2 NSaved=   2.
 NSaved= 2 IEnMin= 2 EnMin= -5262.18619091364     IErMin= 2 ErrMin= 2.20D-02
 ErrMax= 2.20D-02  0.00D+00 EMaxC= 1.00D-01 BMatC= 2.93D+00 BMatP= 1.35D+01
 IDIUse=3 WtCom= 7.80D-01 WtEn= 2.20D-01
 Coeff-Com: -0.444D+00 0.144D+01
 Coeff-En:   0.110D+00 0.890D+00
 Coeff:     -0.322D+00 0.132D+01
 Gap=    -0.003 Goal=   None    Shift=    0.000
 Gap=    -0.110 Goal=   None    Shift=    0.000
 RMSDP=2.58D-03 MaxDP=2.82D-01 DE=-6.11D-01 OVMax= 9.98D-01

 Cycle   3  Pass 1  IDiag  1:
 RMSU=  2.57D-03    CP:  9.71D-01  1.34D+00
 E= -5244.91485139704     Delta-E=       17.271339516603 Rises=F Damp=F
 DIIS: error= 2.44D-01 at cycle   3 NSaved=   3.
 NSaved= 3 IEnMin= 2 EnMin= -5262.18619091364     IErMin= 2 ErrMin= 2.20D-02
 ErrMax= 2.44D-01  0.00D+00 EMaxC= 1.00D-01 BMatC= 7.57D+01 BMatP= 2.93D+00
 IDIUse=2 WtCom= 0.00D+00 WtEn= 1.00D+00
 EnCoef did     3 forward-backward iterations
 Coeff-En:   0.727D-01 0.887D+00 0.406D-01
 Coeff:      0.727D-01 0.887D+00 0.406D-01
 Gap=     0.090 Goal=   None    Shift=    0.000
 Gap=     0.018 Goal=   None    Shift=    0.000
 RMSDP=2.60D-03 MaxDP=2.60D-01 DE= 1.73D+01 OVMax= 8.67D-01

 Cycle   4  Pass 1  IDiag  1:
 RMSU=  1.54D-03    CP:  9.87D-01  2.50D+00  2.19D-01
 E= -5255.51824040604     Delta-E=      -10.603389008997 Rises=F Damp=F
 DIIS: error= 1.90D-01 at cycle   4 NSaved=   4.
 NSaved= 4 IEnMin= 2 EnMin= -5262.18619091364     IErMin= 2 ErrMin= 2.20D-02
 ErrMax= 1.90D-01  0.00D+00 EMaxC= 1.00D-01 BMatC= 5.48D+01 BMatP= 2.93D+00
 IDIUse=2 WtCom= 0.00D+00 WtEn= 1.00D+00
 EnCoef did   100 forward-backward iterations
 Coeff-En:   0.704D+00 0.229D-01 0.153D-02 0.271D+00
 Coeff:      0.704D+00 0.229D-01 0.153D-02 0.271D+00
 Gap=     0.054 Goal=   None    Shift=    0.000
 Gap=     0.066 Goal=   None    Shift=    0.000
 RMSDP=1.66D-03 MaxDP=2.74D-01 DE=-1.06D+01 OVMax= 7.24D-01

 Cycle   5  Pass 1  IDiag  1:
 RMSU=  1.27D-03    CP:  9.93D-01  1.62D+00  5.69D-02  4.23D-01
 E= -5259.77618835446     Delta-E=       -4.257947948427 Rises=F Damp=F
 DIIS: error= 9.35D-02 at cycle   5 NSaved=   5.
 NSaved= 5 IEnMin= 2 EnMin= -5262.18619091364     IErMin= 2 ErrMin= 2.20D-02
 ErrMax= 9.35D-02  0.00D+00 EMaxC= 1.00D-01 BMatC= 1.94D+01 BMatP= 2.93D+00
 IDIUse=2 WtCom= 0.00D+00 WtEn= 1.00D+00
 EnCoef did   100 forward-backward iterations
 Coeff-En:   0.639D+00 0.108D-01 0.721D-03 0.206D+00 0.144D+00
 Coeff:      0.639D+00 0.108D-01 0.721D-03 0.206D+00 0.144D+00
 Gap=     0.182 Goal=   None    Shift=    0.000
 Gap=     0.068 Goal=   None    Shift=    0.000
 RMSDP=1.71D-03 MaxDP=3.46D-01 DE=-4.26D+00 OVMax= 7.55D-01

 Cycle   6  Pass 1  IDiag  1:
 RMSU=  1.21D-03    CP:  9.91D-01  1.46D+00  2.68D-01  3.80D-01  1.52D-01
 E= -5259.62255487895     Delta-E=        0.153633475516 Rises=F Damp=F
 DIIS: error= 1.14D-01 at cycle   6 NSaved=   6.
 NSaved= 6 IEnMin= 2 EnMin= -5262.18619091364     IErMin= 2 ErrMin= 2.20D-02
 ErrMax= 1.14D-01  0.00D+00 EMaxC= 1.00D-01 BMatC= 2.14D+01 BMatP= 2.93D+00
 IDIUse=2 WtCom= 0.00D+00 WtEn= 1.00D+00
 EnCoef did   100 forward-backward iterations
 Coeff-En:   0.418D+00 0.542D-02 0.362D-03 0.716D-04 0.303D+00 0.273D+00
 Coeff:      0.418D+00 0.542D-02 0.362D-03 0.716D-04 0.303D+00 0.273D+00
 Gap=     0.002 Goal=   None    Shift=    0.000
 Gap=    -0.094 Goal=   None    Shift=    0.000
 RMSDP=1.78D-03 MaxDP=2.83D-01 DE= 1.54D-01 OVMax= 7.28D-01

 Cycle   7  Pass 1  IDiag  1:
 RMSU=  1.19D-03    CP:  9.93D-01  1.42D+00  1.17D-01  5.15D-01 -3.16D-03
                    CP: -1.57D-02
 E= -5258.06303710311     Delta-E=        1.559517775835 Rises=F Damp=F
 DIIS: error= 1.27D-01 at cycle   7 NSaved=   7.
 NSaved= 7 IEnMin= 2 EnMin= -5262.18619091364     IErMin= 2 ErrMin= 2.20D-02
 ErrMax= 1.27D-01  0.00D+00 EMaxC= 1.00D-01 BMatC= 3.24D+01 BMatP= 2.93D+00
 IDIUse=2 WtCom= 0.00D+00 WtEn= 1.00D+00
 EnCoef did   100 forward-backward iterations
 Coeff-En:   0.399D+00 0.328D-02 0.219D-03 0.433D-04 0.281D+00 0.243D+00
 Coeff-En:   0.736D-01
 Coeff:      0.399D+00 0.328D-02 0.219D-03 0.433D-04 0.281D+00 0.243D+00
 Coeff:      0.736D-01
 Gap=     0.065 Goal=   None    Shift=    0.000
 Gap=    -0.001 Goal=   None    Shift=    0.000
 RMSDP=1.25D-03 MaxDP=3.25D-01 DE= 1.56D+00 OVMax= 9.14D-01

 Cycle   8  Pass 1  IDiag  1:
 RMSU=  6.30D-04    CP:  9.99D-01  8.25D-01  1.13D-01  3.34D-01  2.27D-01
                    CP:  1.38D-01  2.16D-01
 E= -5263.16337032127     Delta-E=       -5.100333218161 Rises=F Damp=F
 DIIS: error= 8.68D-03 at cycle   8 NSaved=   8.
 NSaved= 8 IEnMin= 8 EnMin= -5263.16337032127     IErMin= 8 ErrMin= 8.68D-03
 ErrMax= 8.68D-03  0.00D+00 EMaxC= 1.00D-01 BMatC= 5.90D-01 BMatP= 2.93D+00
 IDIUse=3 WtCom= 9.13D-01 WtEn= 8.68D-02
 EnCoef did     3 forward-backward iterations
 Coeff-Com: -0.179D+00 0.390D+00-0.119D-01-0.470D-01 0.563D-01 0.872D-01
 Coeff-Com:  0.258D-01 0.679D+00
 Coeff-En:   0.000D+00 0.000D+00 0.000D+00 0.000D+00 0.271D-01 0.487D-02
 Coeff-En:   0.713D-02 0.961D+00
 Coeff:     -0.164D+00 0.356D+00-0.108D-01-0.429D-01 0.537D-01 0.801D-01
 Coeff:      0.242D-01 0.703D+00
 Gap=     0.082 Goal=   None    Shift=    0.000
 Gap=     0.124 Goal=   None    Shift=    0.000
 RMSDP=5.33D-04 MaxDP=5.48D-02 DE=-5.10D+00 OVMax= 1.66D-01

 Cycle   9  Pass 1  IDiag  1:
 RMSU=  4.68D-04    CP:  1.00D+00  8.66D-01  8.97D-02  2.80D-01  2.66D-01
                    CP:  1.99D-01  1.91D-01  6.63D-01
 E= -5263.04133317713     Delta-E=        0.122037144141 Rises=F Damp=F
 DIIS: error= 2.80D-02 at cycle   9 NSaved=   9.
 NSaved= 9 IEnMin= 8 EnMin= -5263.16337032127     IErMin= 8 ErrMin= 8.68D-03
 ErrMax= 2.80D-02  0.00D+00 EMaxC= 1.00D-01 BMatC= 1.34D+00 BMatP= 5.90D-01
 IDIUse=2 WtCom= 0.00D+00 WtEn= 1.00D+00
 EnCoef did     2 forward-backward iterations
 Coeff-En:   0.000D+00 0.000D+00 0.000D+00 0.000D+00 0.254D-01 0.000D+00
 Coeff-En:   0.000D+00 0.640D+00 0.335D+00
 Coeff:      0.000D+00 0.000D+00 0.000D+00 0.000D+00 0.254D-01 0.000D+00
 Coeff:      0.000D+00 0.640D+00 0.335D+00
 Gap=     0.068 Goal=   None    Shift=    0.000
 Gap=    -0.012 Goal=   None    Shift=    0.000
 RMSDP=1.37D-03 MaxDP=2.68D-01 DE= 1.22D-01 OVMax= 7.80D-01

 Cycle  10  Pass 1  IDiag  1:
 RMSU=  1.01D-03    CP:  9.94D-01  2.10D+00  3.64D-02  5.18D-01  2.59D-01
                    CP:  1.98D-01  3.34D-01  3.04D-02  3.54D-01
 E= -5258.15139750224     Delta-E=        4.889935674886 Rises=F Damp=F
 DIIS: error= 1.23D-01 at cycle  10 NSaved=  10.
 NSaved=10 IEnMin= 8 EnMin= -5263.16337032127     IErMin= 8 ErrMin= 8.68D-03
 ErrMax= 1.23D-01  0.00D+00 EMaxC= 1.00D-01 BMatC= 3.08D+01 BMatP= 5.90D-01
 IDIUse=2 WtCom= 0.00D+00 WtEn= 1.00D+00
 EnCoef did     6 forward-backward iterations
 Coeff-En:   0.000D+00 0.000D+00 0.000D+00 0.000D+00 0.657D-02 0.000D+00
 Coeff-En:   0.000D+00 0.647D+00 0.304D+00 0.421D-01
 Coeff:      0.000D+00 0.000D+00 0.000D+00 0.000D+00 0.657D-02 0.000D+00
 Coeff:      0.000D+00 0.647D+00 0.304D+00 0.421D-01
 Gap=     0.056 Goal=   None    Shift=    0.000
 Gap=     0.017 Goal=   None    Shift=    0.000
 RMSDP=1.12D-03 MaxDP=2.60D-01 DE= 4.89D+00 OVMax= 9.52D-01

 Cycle  11  Pass 1  IDiag  1:
 RMSU=  5.15D-04    CP:  9.99D-01  1.42D+00  5.80D-02  4.53D-01  3.47D-01
                    CP:  1.53D-01  4.37D-02  6.41D-01  4.39D-01  2.60D-01
 E= -5262.49714427767     Delta-E=       -4.345746775422 Rises=F Damp=F
 DIIS: error= 7.30D-02 at cycle  11 NSaved=  11.
 NSaved=11 IEnMin= 8 EnMin= -5263.16337032127     IErMin= 8 ErrMin= 8.68D-03
 ErrMax= 7.30D-02  0.00D+00 EMaxC= 1.00D-01 BMatC= 5.23D+00 BMatP= 5.90D-01
 IDIUse=2 WtCom= 0.00D+00 WtEn= 1.00D+00
 EnCoef did     3 forward-backward iterations
 Coeff-En:   0.000D+00 0.000D+00 0.000D+00 0.000D+00 0.000D+00 0.000D+00
 Coeff-En:   0.000D+00 0.473D+00 0.356D+00 0.000D+00 0.171D+00
 Coeff:      0.000D+00 0.000D+00 0.000D+00 0.000D+00 0.000D+00 0.000D+00
 Coeff:      0.000D+00 0.473D+00 0.356D+00 0.000D+00 0.171D+00
 Gap=     0.077 Goal=   None    Shift=    0.000
 Gap=     0.046 Goal=   None    Shift=    0.000
 RMSDP=5.28D-04 MaxDP=9.65D-02 DE=-4.35D+00 OVMax= 4.03D-01

 Cycle  12  Pass 1  IDiag  1:
 RMSU=  2.70D-04    CP:  1.00D+00  1.12D+00  6.66D-02  3.91D-01  2.57D-01
                    CP:  2.16D-01  1.93D-01  7.00D-01  5.39D-01  1.40D-01
                    CP:  3.78D-01
 E= -5263.16351027380     Delta-E=       -0.666365996134 Rises=F Damp=F
 DIIS: error= 1.65D-02 at cycle  12 NSaved=  12.
 NSaved=12 IEnMin=12 EnMin= -5263.16351027380     IErMin= 8 ErrMin= 8.68D-03
 ErrMax= 1.65D-02  0.00D+00 EMaxC= 1.00D-01 BMatC= 7.43D-01 BMatP= 5.90D-01
 IDIUse=2 WtCom= 0.00D+00 WtEn= 1.00D+00
 EnCoef did     6 forward-backward iterations
 Coeff-En:   0.000D+00 0.000D+00 0.000D+00 0.000D+00 0.000D+00 0.000D+00
 Coeff-En:   0.000D+00 0.384D+00 0.217D+00 0.000D+00 0.317D-01 0.367D+00
 Coeff:      0.000D+00 0.000D+00 0.000D+00 0.000D+00 0.000D+00 0.000D+00
 Coeff:      0.000D+00 0.384D+00 0.217D+00 0.000D+00 0.317D-01 0.367D+00
 Gap=     0.088 Goal=   None    Shift=    0.000
 Gap=     0.111 Goal=   None    Shift=    0.000
 RMSDP=4.93D-04 MaxDP=7.78D-02 DE=-6.66D-01 OVMax= 2.70D-01

 Cycle  13  Pass 1  IDiag  1:
 RMSU=  2.60D-04    CP:  1.00D+00  1.06D+00  6.98D-02  3.47D-01  3.42D-01
                    CP:  9.41D-02  1.04D-01  8.11D-01  4.80D-01  8.95D-02
                    CP:  4.63D-01 -2.59D-01
 E= -5263.07258839371     Delta-E=        0.090921880092 Rises=F Damp=F
 DIIS: error= 2.37D-02 at cycle  13 NSaved=  13.
 NSaved=13 IEnMin=12 EnMin= -5263.16351027380     IErMin= 8 ErrMin= 8.68D-03
 ErrMax= 2.37D-02  0.00D+00 EMaxC= 1.00D-01 BMatC= 1.35D+00 BMatP= 5.90D-01
 IDIUse=2 WtCom= 0.00D+00 WtEn= 1.00D+00
 EnCoef did     5 forward-backward iterations
 Coeff-En:   0.000D+00 0.000D+00 0.000D+00 0.000D+00 0.000D+00 0.000D+00
 Coeff-En:   0.000D+00 0.264D+00 0.159D+00 0.000D+00 0.000D+00 0.387D+00
 Coeff-En:   0.190D+00
 Coeff:      0.000D+00 0.000D+00 0.000D+00 0.000D+00 0.000D+00 0.000D+00
 Coeff:      0.000D+00 0.264D+00 0.159D+00 0.000D+00 0.000D+00 0.387D+00
 Coeff:      0.190D+00
 Gap=     0.067 Goal=   None    Shift=    0.000
 Gap=     0.089 Goal=   None    Shift=    0.000
 RMSDP=3.46D-04 MaxDP=7.33D-02 DE= 9.09D-02 OVMax= 2.29D-01

 Cycle  14  Pass 1  IDiag  1:
 RMSU=  1.08D-04    CP:  1.00D+00  9.08D-01  8.61D-02  3.12D-01  2.74D-01
                    CP:  1.78D-01  1.71D-01  8.26D-01  4.99D-01  6.93D-02
                    CP:  1.95D-01  1.92D-01  2.44D-01
 E= -5263.26294806863     Delta-E=       -0.190359674922 Rises=F Damp=F
 DIIS: error= 6.31D-03 at cycle  14 NSaved=  14.
 NSaved=14 IEnMin=14 EnMin= -5263.26294806863     IErMin=14 ErrMin= 6.31D-03
 ErrMax= 6.31D-03  0.00D+00 EMaxC= 1.00D-01 BMatC= 1.49D-01 BMatP= 5.90D-01
 IDIUse=3 WtCom= 9.37D-01 WtEn= 6.31D-02
 EnCoef did     1 forward-backward iterations
 Coeff-Com: -0.773D-01 0.956D-01-0.114D-02-0.327D-02-0.166D-02-0.392D-02
 Coeff-Com:  0.299D-02 0.173D+00 0.108D+00-0.554D-02-0.120D-01 0.239D+00
 Coeff-Com:  0.994D-01 0.387D+00
 Coeff-En:   0.000D+00 0.000D+00 0.000D+00 0.000D+00 0.000D+00 0.000D+00
 Coeff-En:   0.000D+00 0.000D+00 0.000D+00 0.000D+00 0.000D+00 0.238D+00
 Coeff-En:   0.560D-01 0.706D+00
 Coeff:     -0.724D-01 0.896D-01-0.107D-02-0.307D-02-0.155D-02-0.367D-02
 Coeff:      0.280D-02 0.162D+00 0.102D+00-0.520D-02-0.112D-01 0.238D+00
 Coeff:      0.967D-01 0.407D+00
 Gap=     0.082 Goal=   None    Shift=    0.000
 Gap=     0.077 Goal=   None    Shift=    0.000
 RMSDP=1.19D-04 MaxDP=2.15D-02 DE=-1.90D-01 OVMax= 5.52D-02

 Cycle  15  Pass 1  IDiag  1:
 RMSU=  5.85D-05    CP:  1.00D+00  9.83D-01  8.15D-02  3.44D-01  2.65D-01
                    CP:  1.71D-01  1.80D-01  8.24D-01  5.10D-01  6.77D-02
                    CP:  2.29D-01  3.59D-01  2.61D-01  4.08D-01
 E= -5263.28588544966     Delta-E=       -0.022937381033 Rises=F Damp=F
 DIIS: error= 1.31D-03 at cycle  15 NSaved=  15.
 NSaved=15 IEnMin=15 EnMin= -5263.28588544966     IErMin=15 ErrMin= 1.31D-03
 ErrMax= 1.31D-03  0.00D+00 EMaxC= 1.00D-01 BMatC= 9.01D-03 BMatP= 1.49D-01
 IDIUse=3 WtCom= 9.87D-01 WtEn= 1.31D-02
 Coeff-Com: -0.442D-01 0.524D-01-0.971D-03-0.412D-03 0.149D-02-0.532D-02
 Coeff-Com:  0.367D-02 0.391D-01 0.280D-01-0.345D-02-0.643D-02 0.116D+00
 Coeff-Com:  0.380D-01 0.318D+00 0.464D+00
 Coeff-En:   0.000D+00 0.000D+00 0.000D+00 0.000D+00 0.000D+00 0.000D+00
 Coeff-En:   0.000D+00 0.000D+00 0.000D+00 0.000D+00 0.000D+00 0.000D+00
 Coeff-En:   0.000D+00 0.000D+00 0.100D+01
 Coeff:     -0.436D-01 0.517D-01-0.959D-03-0.406D-03 0.147D-02-0.525D-02
 Coeff:      0.362D-02 0.386D-01 0.276D-01-0.340D-02-0.635D-02 0.114D+00
 Coeff:      0.375D-01 0.314D+00 0.471D+00
 Gap=     0.077 Goal=   None    Shift=    0.000
 Gap=     0.072 Goal=   None    Shift=    0.000
 RMSDP=4.16D-05 MaxDP=7.44D-03 DE=-2.29D-02 OVMax= 2.10D-02

 Cycle  16  Pass 1  IDiag  1:
 RMSU=  2.73D-05    CP:  1.00D+00  9.80D-01  8.06D-02  3.39D-01  2.68D-01
                    CP:  1.74D-01  1.81D-01  8.21D-01  5.11D-01  7.30D-02
                    CP:  2.38D-01  3.65D-01  2.58D-01  5.74D-01  6.13D-01
 E= -5263.28685265372     Delta-E=       -0.000967204061 Rises=F Damp=F
 DIIS: error= 1.42D-03 at cycle  16 NSaved=  16.
 NSaved=16 IEnMin=16 EnMin= -5263.28685265372     IErMin=15 ErrMin= 1.31D-03
 ErrMax= 1.42D-03  0.00D+00 EMaxC= 1.00D-01 BMatC= 5.13D-03 BMatP= 9.01D-03
 IDIUse=3 WtCom= 9.87D-01 WtEn= 1.31D-02
 Coeff-Com: -0.107D-01 0.127D-01-0.158D-03 0.285D-03 0.103D-02-0.180D-02
 Coeff-Com: -0.305D-03-0.193D-01-0.644D-02 0.131D-04 0.210D-02 0.163D-01
 Coeff-Com:  0.101D-01 0.102D-01 0.316D+00 0.670D+00
 Coeff-En:   0.000D+00 0.000D+00 0.000D+00 0.000D+00 0.000D+00 0.000D+00
 Coeff-En:   0.000D+00 0.000D+00 0.000D+00 0.000D+00 0.000D+00 0.000D+00
 Coeff-En:   0.000D+00 0.000D+00 0.293D+00 0.707D+00
 Coeff:     -0.106D-01 0.126D-01-0.156D-03 0.282D-03 0.101D-02-0.177D-02
 Coeff:     -0.301D-03-0.190D-01-0.636D-02 0.129D-04 0.208D-02 0.161D-01
 Coeff:      0.998D-02 0.101D-01 0.315D+00 0.671D+00
 Gap=     0.079 Goal=   None    Shift=    0.000
 Gap=     0.068 Goal=   None    Shift=    0.000
 RMSDP=2.57D-05 MaxDP=3.10D-03 DE=-9.67D-04 OVMax= 1.06D-02

 Cycle  17  Pass 1  IDiag  1:
 RMSU=  1.66D-05    CP:  1.00D+00  9.89D-01  7.93D-02  3.44D-01  2.72D-01
                    CP:  1.73D-01  1.79D-01  8.16D-01  5.14D-01  7.50D-02
                    CP:  2.51D-01  3.93D-01  2.81D-01  5.29D-01  7.38D-01
                    CP:  7.70D-01
 E= -5263.28768060791     Delta-E=       -0.000827954183 Rises=F Damp=F
 DIIS: error= 4.35D-04 at cycle  17 NSaved=  17.
 NSaved=17 IEnMin=17 EnMin= -5263.28768060791     IErMin=17 ErrMin= 4.35D-04
 ErrMax= 4.35D-04  0.00D+00 EMaxC= 1.00D-01 BMatC= 5.91D-04 BMatP= 5.13D-03
 IDIUse=3 WtCom= 9.96D-01 WtEn= 4.35D-03
 Coeff-Com: -0.382D-02 0.464D-02 0.808D-04 0.195D-03-0.228D-03-0.446D-03
 Coeff-Com: -0.446D-03-0.190D-01-0.963D-02 0.283D-03 0.511D-03 0.364D-02
 Coeff-Com:  0.105D-01-0.310D-01 0.159D+00 0.440D+00 0.446D+00
 Coeff-En:   0.000D+00 0.000D+00 0.000D+00 0.000D+00 0.000D+00 0.000D+00
 Coeff-En:   0.000D+00 0.000D+00 0.000D+00 0.000D+00 0.000D+00 0.000D+00
 Coeff-En:   0.000D+00 0.000D+00 0.000D+00 0.000D+00 0.100D+01
 Coeff:     -0.380D-02 0.462D-02 0.804D-04 0.194D-03-0.227D-03-0.444D-03
 Coeff:     -0.444D-03-0.190D-01-0.959D-02 0.282D-03 0.508D-03 0.362D-02
 Coeff:      0.104D-01-0.309D-01 0.158D+00 0.438D+00 0.449D+00
 Gap=     0.078 Goal=   None    Shift=    0.000
 Gap=     0.068 Goal=   None    Shift=    0.000
 RMSDP=1.02D-05 MaxDP=1.05D-03 DE=-8.28D-04 OVMax= 2.65D-03

 Cycle  18  Pass 1  IDiag  1:
 RMSU=  6.68D-06    CP:  1.00D+00  9.92D-01  7.90D-02  3.43D-01  2.72D-01
                    CP:  1.72D-01  1.79D-01  8.16D-01  5.16D-01  7.62D-02
                    CP:  2.54D-01  3.93D-01  2.91D-01  5.25D-01  7.54D-01
                    CP:  8.69D-01  6.50D-01
 E= -5263.28776318029     Delta-E=       -0.000082572387 Rises=F Damp=F
 DIIS: error= 5.66D-04 at cycle  18 NSaved=  18.
 NSaved=18 IEnMin=18 EnMin= -5263.28776318029     IErMin=17 ErrMin= 4.35D-04
 ErrMax= 5.66D-04  0.00D+00 EMaxC= 1.00D-01 BMatC= 2.30D-04 BMatP= 5.91D-04
 IDIUse=3 WtCom= 9.96D-01 WtEn= 4.35D-03
 Coeff-Com: -0.267D-02 0.318D-02 0.331D-04 0.185D-03-0.455D-03-0.122D-03
 Coeff-Com: -0.131D-03-0.611D-02-0.427D-02 0.181D-03 0.218D-02-0.766D-03
 Coeff-Com:  0.162D-02-0.837D-02 0.356D-01 0.115D+00 0.315D+00 0.550D+00
 Coeff-En:   0.000D+00 0.000D+00 0.000D+00 0.000D+00 0.000D+00 0.000D+00
 Coeff-En:   0.000D+00 0.000D+00 0.000D+00 0.000D+00 0.000D+00 0.000D+00
 Coeff-En:   0.000D+00 0.000D+00 0.000D+00 0.000D+00 0.128D+00 0.872D+00
 Coeff:     -0.266D-02 0.317D-02 0.329D-04 0.184D-03-0.453D-03-0.121D-03
 Coeff:     -0.131D-03-0.608D-02-0.425D-02 0.180D-03 0.217D-02-0.763D-03
 Coeff:      0.161D-02-0.834D-02 0.354D-01 0.115D+00 0.314D+00 0.551D+00
 Gap=     0.078 Goal=   None    Shift=    0.000
 Gap=     0.068 Goal=   None    Shift=    0.000
 RMSDP=4.88D-06 MaxDP=8.30D-04 DE=-8.26D-05 OVMax= 1.42D-03

 Cycle  19  Pass 1  IDiag  1:
 RMSU=  4.11D-06    CP:  1.00D+00  9.94D-01  7.91D-02  3.44D-01  2.71D-01
                    CP:  1.72D-01  1.78D-01  8.17D-01  5.17D-01  7.67D-02
                    CP:  2.55D-01  3.92D-01  2.90D-01  5.32D-01  7.69D-01
                    CP:  8.86D-01  6.83D-01  8.00D-01
 E= -5263.28779628598     Delta-E=       -0.000033105684 Rises=F Damp=F
 DIIS: error= 1.07D-04 at cycle  19 NSaved=  19.
 NSaved=19 IEnMin=19 EnMin= -5263.28779628598     IErMin=19 ErrMin= 1.07D-04
 ErrMax= 1.07D-04  0.00D+00 EMaxC= 1.00D-01 BMatC= 3.51D-05 BMatP= 2.30D-04
 IDIUse=3 WtCom= 9.99D-01 WtEn= 1.07D-03
 Coeff-Com: -0.422D-03 0.284D-03 0.327D-04 0.892D-04-0.401D-04-0.855D-04
 Coeff-Com:  0.574D-04 0.152D-03-0.153D-02-0.814D-04 0.109D-02 0.730D-03
 Coeff-Com: -0.210D-02 0.447D-02-0.257D-01-0.588D-01 0.960D-01 0.380D+00
 Coeff-Com:  0.606D+00
 Coeff-En:   0.000D+00 0.000D+00 0.000D+00 0.000D+00 0.000D+00 0.000D+00
 Coeff-En:   0.000D+00 0.000D+00 0.000D+00 0.000D+00 0.000D+00 0.000D+00
 Coeff-En:   0.000D+00 0.000D+00 0.000D+00 0.000D+00 0.000D+00 0.000D+00
 Coeff-En:   0.100D+01
 Coeff:     -0.422D-03 0.283D-03 0.327D-04 0.891D-04-0.400D-04-0.854D-04
 Coeff:      0.574D-04 0.152D-03-0.152D-02-0.813D-04 0.109D-02 0.729D-03
 Coeff:     -0.209D-02 0.446D-02-0.256D-01-0.587D-01 0.959D-01 0.379D+00
 Coeff:      0.607D+00
 Gap=     0.078 Goal=   None    Shift=    0.000
 Gap=     0.068 Goal=   None    Shift=    0.000
 RMSDP=3.14D-06 MaxDP=4.82D-04 DE=-3.31D-05 OVMax= 1.50D-03

 Cycle  20  Pass 1  IDiag  1:
 RMSU=  2.22D-06    CP:  1.00D+00  9.94D-01  7.91D-02  3.44D-01  2.72D-01
                    CP:  1.72D-01  1.78D-01  8.16D-01  5.16D-01  7.72D-02
                    CP:  2.56D-01  3.95D-01  2.90D-01  5.38D-01  7.74D-01
                    CP:  8.96D-01  7.34D-01  1.00D+00  8.99D-01
 E= -5263.28780367512     Delta-E=       -0.000007389137 Rises=F Damp=F
 DIIS: error= 6.83D-05 at cycle  20 NSaved=  20.
 NSaved=20 IEnMin=20 EnMin= -5263.28780367512     IErMin=20 ErrMin= 6.83D-05
 ErrMax= 6.83D-05  0.00D+00 EMaxC= 1.00D-01 BMatC= 9.58D-06 BMatP= 3.51D-05
 IDIUse=1 WtCom= 1.00D+00 WtEn= 0.00D+00
 Coeff-Com:  0.462D-03-0.567D-03 0.191D-04 0.278D-04 0.904D-04-0.916D-04
 Coeff-Com: -0.343D-04 0.117D-02-0.487D-03-0.129D-04-0.180D-03 0.928D-03
 Coeff-Com: -0.124D-02 0.192D-02-0.259D-01-0.587D-01 0.129D-01 0.130D+00
 Coeff-Com:  0.408D+00 0.531D+00
 Coeff:      0.462D-03-0.567D-03 0.191D-04 0.278D-04 0.904D-04-0.916D-04
 Coeff:     -0.343D-04 0.117D-02-0.487D-03-0.129D-04-0.180D-03 0.928D-03
 Coeff:     -0.124D-02 0.192D-02-0.259D-01-0.587D-01 0.129D-01 0.130D+00
 Coeff:      0.408D+00 0.531D+00
 Gap=     0.078 Goal=   None    Shift=    0.000
 Gap=     0.068 Goal=   None    Shift=    0.000
 RMSDP=1.65D-06 MaxDP=2.39D-04 DE=-7.39D-06 OVMax= 5.61D-04

 Cycle  21  Pass 1  IDiag  1:
 Restarting incremental Fock formation.
 E= -5263.28780606625     Delta-E=       -0.000002391134 Rises=F Damp=F
 DIIS: error= 4.35D-05 at cycle  21 NSaved=  20.
 NSaved=20 IEnMin=20 EnMin= -5263.28780606625     IErMin=20 ErrMin= 4.35D-05
 ErrMax= 4.35D-05  0.00D+00 EMaxC= 1.00D-01 BMatC= 2.04D-06 BMatP= 9.58D-06
 IDIUse=1 WtCom= 1.00D+00 WtEn= 0.00D+00
 Coeff-Com:  0.419D-03-0.439D-03 0.805D-05 0.106D-04-0.727D-04-0.167D-05
 Coeff-Com:  0.860D-03 0.773D-04 0.513D-05-0.132D-03-0.166D-03-0.316D-03
 Coeff-Com:  0.549D-03-0.104D-01-0.228D-01-0.142D-01-0.208D-01 0.922D-01
 Coeff-Com:  0.323D+00 0.652D+00
 Coeff:      0.419D-03-0.439D-03 0.805D-05 0.106D-04-0.727D-04-0.167D-05
 Coeff:      0.860D-03 0.773D-04 0.513D-05-0.132D-03-0.166D-03-0.316D-03
 Coeff:      0.549D-03-0.104D-01-0.228D-01-0.142D-01-0.208D-01 0.922D-01
 Coeff:      0.323D+00 0.652D+00
 Gap=     0.078 Goal=   None    Shift=    0.000
 Gap=     0.068 Goal=   None    Shift=    0.000
 RMSDP=1.05D-06 MaxDP=2.25D-04 DE=-2.39D-06 OVMax= 5.48D-04

 Cycle  22  Pass 1  IDiag  1:
 RMSU=  1.05D-06    CP:  1.00D+00
 E= -5263.28780658976     Delta-E=       -0.000000523507 Rises=F Damp=F
 DIIS: error= 4.69D-05 at cycle  22 NSaved=  20.
 NSaved=20 IEnMin=20 EnMin= -5263.28780658976     IErMin=19 ErrMin= 4.35D-05
 ErrMax= 4.69D-05  0.00D+00 EMaxC= 1.00D-01 BMatC= 1.37D-06 BMatP= 2.04D-06
 IDIUse=1 WtCom= 1.00D+00 WtEn= 0.00D+00
 Coeff-Com:  0.197D-03-0.209D-03-0.608D-05-0.473D-04 0.117D-04 0.428D-03
 Coeff-Com:  0.247D-03 0.120D-04-0.133D-03-0.445D-03 0.160D-03 0.461D-03
 Coeff-Com:  0.476D-04-0.993D-03-0.188D-01-0.598D-01-0.606D-01 0.879D-01
 Coeff-Com:  0.551D+00 0.500D+00
 Coeff:      0.197D-03-0.209D-03-0.608D-05-0.473D-04 0.117D-04 0.428D-03
 Coeff:      0.247D-03 0.120D-04-0.133D-03-0.445D-03 0.160D-03 0.461D-03
 Coeff:      0.476D-04-0.993D-03-0.188D-01-0.598D-01-0.606D-01 0.879D-01
 Coeff:      0.551D+00 0.500D+00
 Gap=     0.078 Goal=   None    Shift=    0.000
 Gap=     0.068 Goal=   None    Shift=    0.000
 RMSDP=6.65D-07 MaxDP=1.28D-04 DE=-5.24D-07 OVMax= 2.93D-04

 Cycle  23  Pass 1  IDiag  1:
 RMSU=  6.11D-07    CP:  1.00D+00  1.25D+00
 E= -5263.28780697003     Delta-E=       -0.000000380276 Rises=F Damp=F
 DIIS: error= 1.95D-05 at cycle  23 NSaved=  20.
 NSaved=20 IEnMin=20 EnMin= -5263.28780697003     IErMin=20 ErrMin= 1.95D-05
 ErrMax= 1.95D-05  0.00D+00 EMaxC= 1.00D-01 BMatC= 2.64D-07 BMatP= 1.37D-06
 IDIUse=1 WtCom= 1.00D+00 WtEn= 0.00D+00
 Coeff-Com: -0.604D-04 0.502D-04 0.103D-04-0.108D-04 0.183D-03 0.293D-03
 Coeff-Com:  0.658D-05-0.379D-04-0.309D-03 0.962D-04 0.712D-03 0.462D-02
 Coeff-Com:  0.654D-02-0.127D-01-0.388D-01-0.807D-01-0.596D-01 0.166D+00
 Coeff-Com:  0.344D+00 0.670D+00
 Coeff:     -0.604D-04 0.502D-04 0.103D-04-0.108D-04 0.183D-03 0.293D-03
 Coeff:      0.658D-05-0.379D-04-0.309D-03 0.962D-04 0.712D-03 0.462D-02
 Coeff:      0.654D-02-0.127D-01-0.388D-01-0.807D-01-0.596D-01 0.166D+00
 Coeff:      0.344D+00 0.670D+00
 Gap=     0.078 Goal=   None    Shift=    0.000
 Gap=     0.068 Goal=   None    Shift=    0.000
 RMSDP=4.82D-07 MaxDP=1.08D-04 DE=-3.80D-07 OVMax= 2.38D-04

 Cycle  24  Pass 1  IDiag  1:
 RMSU=  3.10D-07    CP:  1.00D+00  1.53D+00  1.36D+00
 E= -5263.28780707248     Delta-E=       -0.000000102449 Rises=F Damp=F
 DIIS: error= 1.29D-05 at cycle  24 NSaved=  20.
 NSaved=20 IEnMin=20 EnMin= -5263.28780707248     IErMin=20 ErrMin= 1.29D-05
 ErrMax= 1.29D-05  0.00D+00 EMaxC= 1.00D-01 BMatC= 1.42D-07 BMatP= 2.64D-07
 IDIUse=1 WtCom= 1.00D+00 WtEn= 0.00D+00
 Coeff-Com: -0.786D-04 0.717D-04 0.446D-05-0.625D-06 0.300D-04 0.138D-03
 Coeff-Com:  0.386D-04-0.154D-03 0.166D-04 0.450D-03 0.343D-02 0.440D-02
 Coeff-Com: -0.589D-02-0.189D-01-0.445D-01-0.574D-01 0.207D-02 0.143D+00
 Coeff-Com:  0.475D+00 0.499D+00
 Coeff:     -0.786D-04 0.717D-04 0.446D-05-0.625D-06 0.300D-04 0.138D-03
 Coeff:      0.386D-04-0.154D-03 0.166D-04 0.450D-03 0.343D-02 0.440D-02
 Coeff:     -0.589D-02-0.189D-01-0.445D-01-0.574D-01 0.207D-02 0.143D+00
 Coeff:      0.475D+00 0.499D+00
 Gap=     0.078 Goal=   None    Shift=    0.000
 Gap=     0.068 Goal=   None    Shift=    0.000
 RMSDP=2.15D-07 MaxDP=4.58D-05 DE=-1.02D-07 OVMax= 8.40D-05

 Cycle  25  Pass 1  IDiag  1:
 RMSU=  1.29D-07    CP:  1.00D+00  1.67D+00  1.51D+00  1.02D+00
 E= -5263.28780709837     Delta-E=       -0.000000025890 Rises=F Damp=F
 DIIS: error= 8.70D-06 at cycle  25 NSaved=  20.
 NSaved=20 IEnMin=20 EnMin= -5263.28780709837     IErMin=20 ErrMin= 8.70D-06
 ErrMax= 8.70D-06  0.00D+00 EMaxC= 1.00D-01 BMatC= 6.99D-08 BMatP= 1.42D-07
 IDIUse=1 WtCom= 1.00D+00 WtEn= 0.00D+00
 Coeff-Com: -0.190D-04 0.158D-04-0.240D-06-0.813D-04-0.804D-04 0.438D-04
 Coeff-Com:  0.564D-04-0.238D-04 0.608D-04 0.474D-03-0.440D-03 0.745D-03
 Coeff-Com: -0.787D-03 0.432D-02-0.107D-01-0.772D-01-0.401D-01 0.596D-01
 Coeff-Com:  0.416D+00 0.648D+00
 Coeff:     -0.190D-04 0.158D-04-0.240D-06-0.813D-04-0.804D-04 0.438D-04
 Coeff:      0.564D-04-0.238D-04 0.608D-04 0.474D-03-0.440D-03 0.745D-03
 Coeff:     -0.787D-03 0.432D-02-0.107D-01-0.772D-01-0.401D-01 0.596D-01
 Coeff:      0.416D+00 0.648D+00
 Gap=     0.078 Goal=   None    Shift=    0.000
 Gap=     0.068 Goal=   None    Shift=    0.000
 RMSDP=1.57D-07 MaxDP=3.49D-05 DE=-2.59D-08 OVMax= 6.77D-05

 Cycle  26  Pass 1  IDiag  1:
 RMSU=  7.55D-08    CP:  1.00D+00  1.76D+00  1.65D+00  1.11D+00  7.26D-01
 E= -5263.28780711016     Delta-E=       -0.000000011785 Rises=F Damp=F
 DIIS: error= 6.68D-06 at cycle  26 NSaved=  20.
 NSaved=20 IEnMin=20 EnMin= -5263.28780711016     IErMin=20 ErrMin= 6.68D-06
 ErrMax= 6.68D-06  0.00D+00 EMaxC= 1.00D-01 BMatC= 3.18D-08 BMatP= 6.99D-08
 IDIUse=1 WtCom= 1.00D+00 WtEn= 0.00D+00
 Coeff-Com:  0.111D-04-0.141D-04-0.566D-04-0.107D-03 0.266D-04 0.841D-04
 Coeff-Com: -0.231D-04-0.793D-04-0.438D-03-0.133D-02 0.181D-02 0.826D-03
 Coeff-Com:  0.115D-01 0.104D-01-0.402D-01-0.426D-01-0.787D-01 0.109D+00
 Coeff-Com:  0.396D+00 0.634D+00
 Coeff:      0.111D-04-0.141D-04-0.566D-04-0.107D-03 0.266D-04 0.841D-04
 Coeff:     -0.231D-04-0.793D-04-0.438D-03-0.133D-02 0.181D-02 0.826D-03
 Coeff:      0.115D-01 0.104D-01-0.402D-01-0.426D-01-0.787D-01 0.109D+00
 Coeff:      0.396D+00 0.634D+00
 Gap=     0.078 Goal=   None    Shift=    0.000
 Gap=     0.068 Goal=   None    Shift=    0.000
 RMSDP=6.62D-08 MaxDP=1.33D-05 DE=-1.18D-08 OVMax= 3.37D-05

 Cycle  27  Pass 1  IDiag  1:
 RMSU=  4.60D-08    CP:  1.00D+00  1.80D+00  1.67D+00  1.09D+00  7.63D-01
                    CP:  1.18D+00
 E= -5263.28780711564     Delta-E=       -0.000000005484 Rises=F Damp=F
 DIIS: error= 2.00D-06 at cycle  27 NSaved=  20.
 NSaved=20 IEnMin=20 EnMin= -5263.28780711564     IErMin=20 ErrMin= 2.00D-06
 ErrMax= 2.00D-06  0.00D+00 EMaxC= 1.00D-01 BMatC= 3.31D-09 BMatP= 3.18D-08
 IDIUse=1 WtCom= 1.00D+00 WtEn= 0.00D+00
 Coeff-Com:  0.202D-05-0.663D-05-0.488D-04 0.106D-04 0.479D-04-0.142D-04
 Coeff-Com: -0.251D-04-0.286D-03-0.682D-03 0.106D-02 0.263D-03 0.565D-02
 Coeff-Com:  0.868D-02-0.993D-02-0.143D-01-0.593D-01-0.290D-01 0.113D+00
 Coeff-Com:  0.377D+00 0.607D+00
 Coeff:      0.202D-05-0.663D-05-0.488D-04 0.106D-04 0.479D-04-0.142D-04
 Coeff:     -0.251D-04-0.286D-03-0.682D-03 0.106D-02 0.263D-03 0.565D-02
 Coeff:      0.868D-02-0.993D-02-0.143D-01-0.593D-01-0.290D-01 0.113D+00
 Coeff:      0.377D+00 0.607D+00
 Gap=     0.078 Goal=   None    Shift=    0.000
 Gap=     0.068 Goal=   None    Shift=    0.000
 RMSDP=2.59D-08 MaxDP=4.48D-06 DE=-5.48D-09 OVMax= 8.07D-06

 Cycle  28  Pass 1  IDiag  1:
 RMSU=  2.02D-08    CP:  1.00D+00  1.81D+00  1.68D+00  1.10D+00  8.18D-01
                    CP:  1.29D+00  1.00D+00
 E= -5263.28780711614     Delta-E=       -0.000000000502 Rises=F Damp=F
 DIIS: error= 3.75D-07 at cycle  28 NSaved=  20.
 NSaved=20 IEnMin=20 EnMin= -5263.28780711614     IErMin=20 ErrMin= 3.75D-07
 ErrMax= 3.75D-07  0.00D+00 EMaxC= 1.00D-01 BMatC= 5.99D-10 BMatP= 3.31D-09
 IDIUse=1 WtCom= 1.00D+00 WtEn= 0.00D+00
 Coeff-Com:  0.485D-05-0.169D-04 0.271D-05 0.197D-04-0.523D-05-0.427D-05
 Coeff-Com: -0.136D-03-0.289D-03 0.421D-03 0.964D-05 0.201D-02 0.445D-02
 Coeff-Com: -0.239D-03-0.211D-02-0.274D-01-0.397D-01 0.107D-01 0.140D+00
 Coeff-Com:  0.445D+00 0.467D+00
 Coeff:      0.485D-05-0.169D-04 0.271D-05 0.197D-04-0.523D-05-0.427D-05
 Coeff:     -0.136D-03-0.289D-03 0.421D-03 0.964D-05 0.201D-02 0.445D-02
 Coeff:     -0.239D-03-0.211D-02-0.274D-01-0.397D-01 0.107D-01 0.140D+00
 Coeff:      0.445D+00 0.467D+00
 Gap=     0.078 Goal=   None    Shift=    0.000
 Gap=     0.068 Goal=   None    Shift=    0.000
 RMSDP=1.14D-08 MaxDP=9.95D-07 DE=-5.02D-10 OVMax= 2.68D-06

 Cycle  29  Pass 1  IDiag  1:
 RMSU=  8.63D-09    CP:  1.00D+00  1.82D+00  1.68D+00  1.10D+00  8.25D-01
                    CP:  1.33D+00  1.06D+00  7.48D-01
 E= -5263.28780711628     Delta-E=       -0.000000000140 Rises=F Damp=F
 DIIS: error= 1.47D-07 at cycle  29 NSaved=  20.
 NSaved=20 IEnMin=20 EnMin= -5263.28780711628     IErMin=20 ErrMin= 1.47D-07
 ErrMax= 1.47D-07  0.00D+00 EMaxC= 1.00D-01 BMatC= 1.19D-10 BMatP= 5.99D-10
 IDIUse=1 WtCom= 1.00D+00 WtEn= 0.00D+00
 Coeff-Com:  0.561D-05 0.106D-05-0.684D-06-0.435D-06 0.220D-05-0.152D-04
 Coeff-Com: -0.429D-06 0.387D-04-0.129D-03-0.140D-03 0.112D-02 0.298D-02
 Coeff-Com:  0.263D-02-0.489D-02-0.238D-01-0.249D-01 0.119D-03 0.173D+00
 Coeff-Com:  0.345D+00 0.528D+00
 Coeff:      0.561D-05 0.106D-05-0.684D-06-0.435D-06 0.220D-05-0.152D-04
 Coeff:     -0.429D-06 0.387D-04-0.129D-03-0.140D-03 0.112D-02 0.298D-02
 Coeff:      0.263D-02-0.489D-02-0.238D-01-0.249D-01 0.119D-03 0.173D+00
 Coeff:      0.345D+00 0.528D+00
 Gap=     0.078 Goal=   None    Shift=    0.000
 Gap=     0.068 Goal=   None    Shift=    0.000
 RMSDP=5.73D-09 MaxDP=6.53D-07 DE=-1.40D-10 OVMax= 1.66D-06

 SCF Done:  E(UM06L) =  -5263.28780712     A.U. after   29 cycles
            NFock= 29  Conv=0.57D-08     -V/T= 2.0017
 <Sx>= 0.0000 <Sy>= 0.0000 <Sz>= 7.0000 <S**2>=56.0871 S= 7.0058
 <L.S>=  0.00000000000    
 KE= 5.254464167737D+03 PE=-2.200532833780D+04 EE= 6.729968516463D+03
 Annihilation of the first spin contaminant:
 S**2 before annihilation    56.0871,   after    56.0006
 Leave Link  502 at Mon Jan 30 18:19:51 2023, MaxMem= 14763950080 cpu:           11228.7 elap:            5672.9
 (Enter /software/commercial/gaussian/g16/AVX2/g16/l508.exe)
 QCSCF skips out because SCF is already converged.
 Leave Link  508 at Mon Jan 30 18:19:52 2023, MaxMem= 14763950080 cpu:               0.0 elap:               0.3
 (Enter /software/commercial/gaussian/g16/AVX2/g16/l601.exe)
 Copying SCF densities to generalized density rwf, IOpCl= 1 IROHF=0.

 **********************************************************************

            Population analysis using the SCF Density.

 **********************************************************************

 Alpha  occ. eigenvalues -- -255.66151-255.65372-255.63026 -30.11234 -30.10408
 Alpha  occ. eigenvalues --  -30.07041 -25.88313 -25.88234 -25.88178 -25.87534
 Alpha  occ. eigenvalues --  -25.87442 -25.87356 -25.84550 -25.84501 -25.84109
 Alpha  occ. eigenvalues --  -19.03894 -18.99829 -18.99685 -18.99615 -18.99608
 Alpha  occ. eigenvalues --  -18.99251 -18.98937 -18.98926 -18.98899 -18.98644
 Alpha  occ. eigenvalues --  -18.98386 -18.98014 -18.97865 -18.97794 -18.97219
 Alpha  occ. eigenvalues --  -14.24619 -14.24476 -10.19581 -10.19526 -10.18540
 Alpha  occ. eigenvalues --  -10.18292 -10.18152 -10.18082  -3.68078  -3.67201
 Alpha  occ. eigenvalues --   -3.60893  -2.42167  -2.42025  -2.41899  -2.41370
 Alpha  occ. eigenvalues --   -2.41183  -2.40990  -2.36011  -2.35805  -2.33537
 Alpha  occ. eigenvalues --   -1.08515  -1.07974  -1.07381  -1.07142  -1.06786
 Alpha  occ. eigenvalues --   -1.06662  -1.06000  -1.05538  -1.00603  -1.00217
 Alpha  occ. eigenvalues --   -0.99701  -0.99396  -0.99096  -0.98985  -0.94824
[...]
     3  C    0.247231   0.032415   0.331377
     5  O   -0.239809   0.083909  -0.339065
     6  O   -0.226511   0.102922  -0.330977
     7  C    0.241251   0.029899   0.325969
     9  O   -0.194809   0.070317  -0.296815
    10  O   -0.225252   0.096644  -0.326601
    11  O   -0.238622   0.090923  -0.341776
    12  C    0.240336   0.028741   0.325400
    14  O   -0.197957   0.066579  -0.300184
    15  O   -0.230490   0.124931  -0.338561
    16  C    0.250939   0.028378   0.335752
    18  Fe   0.447086   3.172879   0.874771
    19  O   -0.206573   0.075126  -0.302180
    20  Fe   0.540309   4.160624   0.896705
    21  O   -0.236105   0.133752  -0.345677
    22  O   -0.225454   0.138271  -0.336436
    23  Fe   0.575654   4.125307   0.926935
    24  O   -0.329801   0.524691  -0.552885
    25  C    0.243438   0.032949   0.328570
    27  C    0.251554   0.030517   0.337334
    29  N    0.007673   0.000736   0.006700
    30  N    0.000862   0.000806  -0.001897
    31  O   -0.234910   0.582894  -0.388563
    32  O    0.179607   0.061898   0.157615
 
 EQQ=  12.9727651422     EQD=-0.328358523353     EDD= 0.303986154246E-02
 EQQ+QD+DD=  12.6474464804    
 
                          Isotropic Fermi Contact Couplings
        Atom                 a.u.       MegaHertz       Gauss      10(-4) cm-1
     1  O(17)              0.09418      -4.07813      -1.45518      -1.36032
     2  O(17)              0.09497      -4.11233      -1.46738      -1.37172
     3  C(13)             -0.00258      -0.20714      -0.07391      -0.06909
     4  H(1)               0.00798       2.54935       0.90967       0.85037
     5  O(17)              0.09921      -4.29561      -1.53278      -1.43286
     6  O(17)              0.08871      -3.84097      -1.37055      -1.28121
     7  C(13)             -0.00233      -0.18705      -0.06674      -0.06239
     8  H(1)               0.00789       2.51857       0.89869       0.84010
     9  O(17)              0.07164      -3.10184      -1.10681      -1.03466
    10  O(17)              0.10190      -4.41240      -1.57445      -1.47182
    11  O(17)              0.09253      -4.00673      -1.42970      -1.33650
    12  C(13)             -0.00320      -0.25696      -0.09169      -0.08571
    13  H(1)               0.00784       2.50353       0.89332       0.83509
    14  O(17)              0.07096      -3.07235      -1.09629      -1.02483
    15  O(17)              0.11210      -4.85384      -1.73197      -1.61907
    16  C(13)             -0.00271      -0.21763      -0.07766      -0.07260
    17  H(1)               0.00694       2.21449       0.79019       0.73868
    18  Fe(57)             0.22735       2.35536       0.84045       0.78566
    19  O(17)              0.09503      -4.11458      -1.46818      -1.37248
    20  Fe(57)             0.61875       6.41025       2.28734       2.13823
    21  O(17)              0.10936      -4.73515      -1.68962      -1.57948
    22  O(17)              0.12472      -5.40018      -1.92692      -1.80131
    23  Fe(57)             0.68508       7.09744       2.53254       2.36745
    24  O(17)              0.32522     -14.08201      -5.02481      -4.69725
    25  C(13)             -0.00411      -0.32980      -0.11768      -0.11001
    26  H(1)               0.00842       2.68939       0.95964       0.89708
    27  C(13)             -0.00234      -0.18797      -0.06707      -0.06270
    28  H(1)               0.00721       2.30215       0.82147       0.76792
    29  N(14)              0.00091       0.02108       0.00752       0.00703
    30  N(14)              0.00056       0.01281       0.00457       0.00427
    31  O(17)              0.13637      -5.90463      -2.10692      -1.96957
    32  O(17)              0.06244      -2.70352      -0.96468      -0.90180
    33  H(1)              -0.00039      -0.12454      -0.04444      -0.04154
    34  H(1)              -0.00025      -0.08052      -0.02873      -0.02686
 --------------------------------------------------------
       Center         ----  Spin Dipole Couplings  ----
                      3XX-RR        3YY-RR        3ZZ-RR
 --------------------------------------------------------
     1   Atom       -0.255386      0.094172      0.161214
     2   Atom       -0.125602      0.073028      0.052574
     3   Atom        0.009609      0.004025     -0.013634
     4   Atom       -0.012835      0.009991      0.002844
     5   Atom        0.080448     -0.091274      0.010826
     6   Atom        0.109709     -0.166611      0.056902
     7   Atom        0.008721      0.014751     -0.023472
     8   Atom        0.008392     -0.006448     -0.001944
     9   Atom        0.004534     -0.105944      0.101410
    10   Atom        0.011176     -0.109084      0.097908
    11   Atom       -0.071177     -0.088400      0.159576
    12   Atom       -0.004436      0.006697     -0.002261
    13   Atom       -0.003173     -0.006664      0.009836
    14   Atom       -0.117886     -0.001146      0.119031
    15   Atom       -0.188819      0.092354      0.096464
    16   Atom        0.010989     -0.018232      0.007243
    17   Atom       -0.012380      0.000682      0.011698
    18   Atom       -1.487359      0.062867      1.424492
    19   Atom       -0.017416     -0.061268      0.078684
    20   Atom        0.004902      0.093532     -0.098434
    21   Atom       -0.111666     -0.153636      0.265302
    22   Atom        0.075220     -0.136020      0.060800
    23   Atom        0.102135      0.042502     -0.144638
    24   Atom       -0.172437     -0.019397      0.191834
    25   Atom        0.005421     -0.007111      0.001690
    26   Atom       -0.001118     -0.010955      0.012073
    27   Atom       -0.004440      0.008351     -0.003911
    28   Atom        0.003243     -0.010326      0.007083
    29   Atom        0.022659     -0.009127     -0.013532
    30   Atom        0.026440     -0.008840     -0.017600
    31   Atom       -1.121987      0.088997      1.032990
    32   Atom       -0.145560      0.321373     -0.175813
    33   Atom       -0.035047      0.069859     -0.034812
    34   Atom       -0.039630      0.065951     -0.026321
 --------------------------------------------------------
                        XY            XZ            YZ
 --------------------------------------------------------
     1   Atom       -0.098172     -0.053982      0.311603
     2   Atom       -0.044999     -0.016875      0.171987
     3   Atom        0.021927     -0.003866      0.056102
     4   Atom        0.002112     -0.001005      0.031741
     5   Atom        0.133514      0.201176      0.117527
     6   Atom        0.119691      0.260103      0.111266
     7   Atom       -0.000673      0.049966      0.032383
     8   Atom        0.012062      0.026849      0.016296
     9   Atom       -0.047018      0.129984     -0.064471
    10   Atom        0.109501     -0.229801     -0.131974
    11   Atom        0.110961     -0.200743     -0.166136
    12   Atom       -0.013240     -0.049021     -0.036783
    13   Atom        0.007954     -0.025944     -0.018966
    14   Atom       -0.016688      0.037696     -0.148043
    15   Atom       -0.076488      0.119484     -0.285984
    16   Atom        0.000228     -0.011790     -0.053982
    17   Atom       -0.003071      0.002840     -0.030912
    18   Atom       -1.951931      0.063353      0.338493
    19   Atom       -0.103787     -0.145933      0.091224
    20   Atom        0.005377      0.015196     -0.006548
    21   Atom       -0.149773     -0.234136      0.167624
    22   Atom       -0.158821      0.242143     -0.196743
    23   Atom       -0.029052     -0.030912     -0.031649
    24   Atom       -0.255043      0.030955      0.025317
    25   Atom        0.023765     -0.051124      0.020696
    26   Atom       -0.004152     -0.028427      0.013467
    27   Atom        0.013683      0.055753     -0.006349
    28   Atom       -0.005880      0.030073     -0.011467
    29   Atom       -0.004927     -0.003479      0.000521
    30   Atom       -0.010871      0.001547     -0.000720
    31   Atom       -1.504219      0.151925      0.075736
    32   Atom       -0.012731      0.003321      0.003141
    33   Atom        0.031950     -0.017079     -0.031192
    34   Atom        0.024963      0.015343      0.039359
 --------------------------------------------------------


 ---------------------------------------------------------------------------------
              Anisotropic Spin Dipole Couplings in Principal Axis System
 ---------------------------------------------------------------------------------

       Atom             a.u.   MegaHertz   Gauss  10(-4) cm-1        Axes

              Baa    -0.2846    20.594     7.349     6.870  0.9281  0.3484 -0.1312
     1 O(17)  Bbb    -0.1722    12.463     4.447     4.157  0.3419 -0.6583  0.6706
              Bcc     0.4568   -33.057   -11.796   -11.027 -0.1473  0.6672  0.7302
 
              Baa    -0.1416    10.244     3.655     3.417  0.8609  0.4156 -0.2933
     2 O(17)  Bbb    -0.0989     7.156     2.553     2.387  0.4942 -0.5468  0.6759
              Bcc     0.2405   -17.400    -6.209    -5.804 -0.1205  0.7269  0.6761
 
              Baa    -0.0656    -8.805    -3.142    -2.937  0.2276 -0.6533  0.7221
     3 C(13)  Bbb     0.0091     1.223     0.436     0.408  0.9253 -0.0860 -0.3694
              Bcc     0.0565     7.582     2.705     2.529  0.3035  0.7522  0.5849
 
              Baa    -0.0259   -13.809    -4.927    -4.606  0.1633 -0.6591  0.7341
     4 H(1)   Bbb    -0.0125    -6.666    -2.379    -2.224  0.9864  0.0957 -0.1334
              Bcc     0.0384    20.475     7.306     6.830  0.0177  0.7459  0.6658
 
              Baa    -0.1684    12.188     4.349     4.066 -0.0607  0.8646 -0.4988
     5 O(17)  Bbb    -0.1572    11.376     4.059     3.795  0.7100 -0.3139 -0.6304
              Bcc     0.3257   -23.564    -8.408    -7.860  0.7016  0.3923  0.5948
 
              Baa    -0.2145    15.521     5.538     5.177 -0.1669  0.9581 -0.2328
     6 O(17)  Bbb    -0.1780    12.880     4.596     4.296 -0.6827  0.0580  0.7284
              Bcc     0.3925   -28.401   -10.134    -9.474  0.7114  0.2805  0.6444
 
              Baa    -0.0687    -9.212    -3.287    -3.073 -0.5171 -0.3134  0.7965
     7 C(13)  Bbb     0.0135     1.814     0.647     0.605 -0.5657  0.8235 -0.0432
              Bcc     0.0551     7.399     2.640     2.468  0.6424  0.4729  0.6031
 
              Baa    -0.0260   -13.870    -4.949    -4.627 -0.4942 -0.3561  0.7930
     8 H(1)   Bbb    -0.0131    -7.008    -2.501    -2.338 -0.5327  0.8450  0.0475
              Bcc     0.0391    20.879     7.450     6.964  0.6870  0.3990  0.6073
 
              Baa    -0.1261     9.121     3.255     3.043  0.1751  0.9690  0.1746
     9 O(17)  Bbb    -0.0857     6.199     2.212     2.068  0.8136 -0.0425 -0.5799
              Bcc     0.2117   -15.320    -5.467    -5.110  0.5545 -0.2436  0.7957
 
              Baa    -0.1793    12.975     4.630     4.328  0.7724 -0.0108  0.6351
    10 O(17)  Bbb    -0.1728    12.507     4.463     4.172 -0.2135  0.9373  0.2756
              Bcc     0.3522   -25.482    -9.093    -8.500 -0.5982 -0.3485  0.7216
 
              Baa    -0.1948    14.098     5.031     4.703  0.8355 -0.4933  0.2420
    11 O(17)  Bbb    -0.1689    12.220     4.360     4.076  0.2906  0.7705  0.5673
              Bcc     0.3637   -26.318    -9.391    -8.779 -0.4663 -0.4037  0.7871
 
              Baa    -0.0692    -9.292    -3.316    -3.099  0.5987  0.4313  0.6750
    12 C(13)  Bbb     0.0154     2.064     0.737     0.689 -0.6070  0.7941  0.0309
              Bcc     0.0539     7.227     2.579     2.411 -0.5227 -0.4282  0.7372
 
              Baa    -0.0258   -13.776    -4.916    -4.595  0.6248  0.4028  0.6689
    13 H(1)   Bbb    -0.0130    -6.940    -2.476    -2.315 -0.5687  0.8217  0.0364
              Bcc     0.0388    20.716     7.392     6.910 -0.5350 -0.4031  0.7425
 
              Baa    -0.1248     9.034     3.223     3.013  0.9517 -0.1742 -0.2529
    14 O(17)  Bbb    -0.0987     7.142     2.548     2.382  0.2835  0.8151  0.5052
              Bcc     0.2235   -16.175    -5.772    -5.396  0.1181 -0.5524  0.8251
 
              Baa    -0.2388    17.280     6.166     5.764  0.8302 -0.2420 -0.5023
    15 O(17)  Bbb    -0.1737    12.565     4.484     4.191  0.5100  0.6936  0.5087
              Bcc     0.4125   -29.846   -10.650    -9.955  0.2253 -0.6785  0.6992
 
              Baa    -0.0617    -8.275    -2.953    -2.760  0.0988  0.7751  0.6241
    16 C(13)  Bbb     0.0095     1.279     0.456     0.427  0.9694 -0.2166  0.1155
              Bcc     0.0521     6.996     2.496     2.334 -0.2247 -0.5936  0.7728
 
              Baa    -0.0252   -13.462    -4.804    -4.491  0.0421  0.7677  0.6394
    17 H(1)   Bbb    -0.0127    -6.776    -2.418    -2.260  0.9957  0.0204 -0.0901
              Bcc     0.0379    20.238     7.222     6.751  0.0822 -0.6405  0.7636
 
              Baa    -2.8263   -48.932   -17.460   -16.322  0.8241  0.5635 -0.0572
    18 Fe(57) Bbb     1.1678    20.218     7.214     6.744  0.4507 -0.5914  0.6686
              Bcc     1.6585    28.714    10.246     9.578 -0.3430  0.5768  0.7414
 
              Baa    -0.1501    10.863     3.876     3.623  0.7372  0.6406  0.2148
    19 O(17)  Bbb    -0.0941     6.808     2.429     2.271  0.3740 -0.6516  0.6599
              Bcc     0.2442   -17.671    -6.305    -5.894 -0.5627  0.4062  0.7200
 
              Baa    -0.1009    -1.747    -0.623    -0.583 -0.1439  0.0373  0.9889
    20 Fe(57) Bbb     0.0069     0.119     0.042     0.040  0.9880 -0.0503  0.1457
              Bcc     0.0940     1.628     0.581     0.543  0.0552  0.9980 -0.0296
 
              Baa    -0.2865    20.731     7.397     6.915  0.7182  0.6893  0.0953
    21 O(17)  Bbb    -0.1682    12.173     4.344     4.060 -0.5436  0.6413 -0.5415
              Bcc     0.4547   -32.904   -11.741   -10.975 -0.4344  0.3371  0.8353
 
              Baa    -0.2580    18.670     6.662     6.228  0.0546  0.8677  0.4940
    22 O(17)  Bbb    -0.1652    11.954     4.266     3.987  0.7668  0.2805 -0.5774
              Bcc     0.4232   -30.624   -10.928   -10.215  0.6396 -0.4103  0.6501
 
              Baa    -0.1547    -2.679    -0.956    -0.894  0.1373  0.1766  0.9747
    23 Fe(57) Bbb     0.0396     0.686     0.245     0.229  0.3233  0.9221 -0.2126
              Bcc     0.1151     1.993     0.711     0.665  0.9363 -0.3443 -0.0695
 
              Baa    -0.3651    26.415     9.426     8.811  0.8001  0.5956 -0.0715
    24 O(17)  Bbb     0.1702   -12.317    -4.395    -4.109 -0.5997  0.7967 -0.0743
              Bcc     0.1948   -14.098    -5.031    -4.703  0.0127  0.1024  0.9947
 
              Baa    -0.0647    -8.686    -3.099    -2.897  0.6172 -0.4788  0.6243
    25 C(13)  Bbb     0.0099     1.324     0.473     0.442  0.2937  0.8763  0.3818
              Bcc     0.0549     7.361     2.627     2.455  0.7299  0.0523 -0.6815
 
              Baa    -0.0259   -13.809    -4.927    -4.606  0.6656 -0.3893  0.6367
    26 H(1)   Bbb    -0.0123    -6.571    -2.345    -2.192  0.4650  0.8836  0.0541
              Bcc     0.0382    20.380     7.272     6.798 -0.5837  0.2601  0.7692
 
              Baa    -0.0628    -8.422    -3.005    -2.809  0.7012 -0.1961 -0.6854
    27 C(13)  Bbb     0.0106     1.416     0.505     0.472  0.0525  0.9730 -0.2247
              Bcc     0.0522     7.006     2.500     2.337  0.7110  0.1216  0.6926
 
              Baa    -0.0259   -13.839    -4.938    -4.616 -0.6666  0.2616  0.6980
    28 H(1)   Bbb    -0.0125    -6.679    -2.383    -2.228  0.3598  0.9330 -0.0061
              Bcc     0.0385    20.518     7.321     6.844  0.6528 -0.2470  0.7161
 
              Baa    -0.0139    -0.535    -0.191    -0.178  0.0931 -0.0127  0.9956
    29 N(14)  Bbb    -0.0099    -0.381    -0.136    -0.127  0.1496  0.9887 -0.0014
              Bcc     0.0237     0.915     0.327     0.305  0.9844 -0.1491 -0.0940
 
              Baa    -0.0177    -0.682    -0.243    -0.227 -0.0214  0.0550  0.9983
    30 N(14)  Bbb    -0.0119    -0.459    -0.164    -0.153  0.2742  0.9605 -0.0471
              Bcc     0.0296     1.141     0.407     0.381  0.9614 -0.2727  0.0357
 
              Baa    -2.1469   155.349    55.432    51.819  0.8277  0.5586 -0.0529
    31 O(17)  Bbb     1.0348   -74.881   -26.719   -24.977 -0.1273  0.2787  0.9519
              Bcc     1.1121   -80.468   -28.713   -26.841 -0.5465  0.7812 -0.3018
 
              Baa    -0.1762    12.751     4.550     4.253 -0.1114 -0.0091  0.9937
    32 O(17)  Bbb    -0.1455    10.530     3.757     3.512  0.9934  0.0263  0.1117
              Bcc     0.3217   -23.281    -8.307    -7.766 -0.0272  0.9996  0.0061
 
              Baa    -0.0520   -27.754    -9.903    -9.258  0.7194 -0.0108  0.6945
    33 H(1)   Bbb    -0.0366   -19.514    -6.963    -6.509 -0.6375  0.3867  0.6664
              Bcc     0.0886    47.267    16.866    15.767  0.2758  0.9222 -0.2713
 
              Baa    -0.0497   -26.523    -9.464    -8.847  0.8249  0.0143 -0.5652
    34 H(1)   Bbb    -0.0373   -19.891    -7.098    -6.635  0.5201 -0.4112  0.7486
              Bcc     0.0870    46.414    16.562    15.482  0.2217  0.9114  0.3466
 

 ---------------------------------------------------------------------------------

 No NMR shielding tensors so no spin-rotation constants.
 Leave Link  601 at Wed Feb  1 06:10:49 2023, MaxMem= 14763950080 cpu:              21.9 elap:              12.3
 (Enter /software/commercial/gaussian/g16/AVX2/g16/l9999.exe)
 Unable to Open any file for archive entry.
 1\1\GINC-NODE2009\FOpt\UM06L\Gen\C6H8Fe3N2O15(15)\SVICCHI\01-Feb-2023\
 0\\#p opt=(cartesian,maxcycle=500) gen um06l int=grid=ultrafine scf=(x
 qc,intrep,maxconventionalcycle=150) pop=(hirshfeld) nosymm\\FeFeFe-B-1
 xH2O\\0,15\O,1.7167784303,-2.1245774312,-1.589863788\O,-0.4785679956,-
 2.4981490291,-1.2114479314\C,0.6008119752,-2.6962308449,-1.7853849068\
 H,0.6142769902,-3.4690864373,-2.5731781015\O,1.8903623227,2.1453806637
 ,1.164737748\O,3.0424813208,0.2108694077,1.1621094516\C,2.8244087302,1
 .3934924523,1.5203953822\H,3.5501619509,1.8150811565,2.236731151\O,-2.
 1462382791,-0.1072373364,-1.4956429791\O,2.6951196375,0.4738769972,-1.
 5764207264\O,1.3642956521,2.2868579526,-1.6126102288\C,2.3153675761,1.
 5763205949,-2.0224435022\H,2.8839730115,1.9764943071,-2.879511214\O,-0
 .559410486,-2.0897366566,1.7092713827\O,1.642511996,-2.1891193291,1.21
 67667612\C,0.6168431166,-2.4411192275,1.9063660945\H,0.7929579465,-3.0
 605057109,2.8027054583\Fe,-1.4133339586,-1.1384178408,0.1108703931\O,-
 2.2017934999,0.2732876749,1.4621411193\Fe,0.1289311287,1.9144743747,0.
 0194162759\O,-0.9048219973,2.1057305145,1.7020457669\O,-1.4620650413,2
 .0165407205,-1.1477324798\Fe,1.8898043481,-0.7759525233,-0.1651340177\
 O,0.2278438855,0.0176237099,-0.0196079301\C,-1.8418030003,1.3162933558
 ,2.0251297147\H,-2.4060674755,1.6158965853,2.9259486863\C,-2.103796833
 6,1.1079629167,-1.7472368402\H,-2.7096700119,1.4486017809,-2.604030585
 7\N,-5.5473063259,-0.102787243,0.5038769303\N,-4.9886259661,0.62267785
 99,-0.0965779009\O,-2.7464464395,-2.0493829469,0.2035555865\O,0.260137
 3705,4.0958111525,0.0663995156\H,0.8742278152,4.2946901929,-0.65321190
 62\H,0.7371511059,4.2989871866,0.8811446209\\Version=ES64L-G16RevC.02\
 HF=-5263.2878102\S2=56.087102\S2-1=0.\S2A=56.000568\RMSD=4.166e-09\RMS
 F=4.441e-05\Dipole=1.8339212,2.1998012,-0.0408009\Quadrupole=-9.888465
 8,6.0188491,3.8696167,0.9253823,1.8717374,0.7322814\PG=C01 [X(C6H8Fe3N
 2O15)]\\@
 The archive entry for this job was punched.


 MORNING PEOPLE ARE USUALLY ADMIRED AS EARLY BIRDS.
 RECALL BEN FRANKLIN'S APHORISM THAT THE EARLY BIRD GETS THE WORM.
 I IDENTIFY WITH THE WORM. --  CRAIG JAGGER, MINNEAPOLIS, KS.
 Job cpu time:       3 days  1 hours  9 minutes 24.3 seconds.
 Elapsed time:       1 days 13 hours 18 minutes  6.9 seconds.
 File lengths (MBytes):  RWF=    799 Int=      0 D2E=      0 Chk=     76 Scr=      1
 Normal termination of Gaussian 16 at Wed Feb  1 06:10:56 2023.
