 Entering Gaussian System, Link 0=g16
 Input=FeFeFe-B-1xH2O-freq.gjf
 Output=FeFeFe-B-1xH2O-freq.log
 AtFile(1): /zfs/curium/svicchi/00-MOF/01-Gaussian/zw-basis-set/def2-TZVP/H.gbs
            !----------------------------------------------------------------------
            ! Basis Set Exchange
            ! Version v0.9
            ! https://www.basissetexchange.org
            !----------------------------------------------------------------------
            !   Basis set: def2-TZVP
            ! Description: def2-TZVP
            !        Role: orbital
            !     Version: 1  (Data from Turbomole 7.3)
            !----------------------------------------------------------------------
            H     0
            S    3   1.00
                 34.0613410              0.60251978D-02
                  5.1235746              0.45021094D-01
                  1.1646626              0.20189726
            S    1   1.00
                  0.32723041             1.0000000
            S    1   1.00
                  0.10307241             1.0000000
            P    1   1.00
                  0.8000000              1.0000000
 AtFile(1): /zfs/curium/svicchi/00-MOF/01-Gaussian/zw-basis-set/def2-TZVP/O.gbs
            !----------------------------------------------------------------------
            ! Basis Set Exchange
            ! Version v0.9
            ! https://www.basissetexchange.org
            !----------------------------------------------------------------------
            !   Basis set: def2-TZVP
            ! Description: def2-TZVP
            !        Role: orbital
            !     Version: 1  (Data from Turbomole 7.3)
            !----------------------------------------------------------------------
            O     0
            S    6   1.00
              27032.3826310              0.21726302465D-03
               4052.3871392              0.16838662199D-02
                922.32722710             0.87395616265D-02
                261.24070989             0.35239968808D-01
                 85.354641351            0.11153519115
                 31.035035245            0.25588953961
            S    2   1.00
                 12.260860728            0.39768730901
                  4.9987076005           0.24627849430
            S    1   1.00
                  1.1703108158           1.0000000
            S    1   1.00
                  0.46474740994          1.0000000
            S    1   1.00
                  0.18504536357          1.0000000
            P    4   1.00
                 63.274954801            0.60685103418D-02
                 14.627049379            0.41912575824D-01
                  4.4501223456           0.16153841088
                  1.5275799647           0.35706951311
            P    1   1.00
                  0.52935117943           .44794207502
            P    1   1.00
                  0.17478421270           .24446069663
            D    1   1.00
                  2.31400000             1.0000000
            D    1   1.00
                  0.64500000             1.0000000
            F    1   1.00
                  1.42800000             1.0000000
 AtFile(1): /zfs/curium/svicchi/00-MOF/01-Gaussian/zw-basis-set/def2-TZVP/C.gbs
            !----------------------------------------------------------------------
            ! Basis Set Exchange
            ! Version v0.9
            ! https://www.basissetexchange.org
            !----------------------------------------------------------------------
            !   Basis set: def2-TZVP
            ! Description: def2-TZVP
            !        Role: orbital
            !     Version: 1  (Data from Turbomole 7.3)
            !----------------------------------------------------------------------
            C     0
            S    6   1.00
              13575.3496820              0.22245814352D-03
               2035.2333680              0.17232738252D-02
                463.22562359             0.89255715314D-02
                131.20019598             0.35727984502D-01
                 42.853015891            0.11076259931
                 15.584185766            0.24295627626
            S    2   1.00
                  6.2067138508           0.41440263448
                  2.5764896527           0.23744968655
            S    1   1.00
                  0.57696339419          1.0000000
            S    1   1.00
                  0.22972831358          1.0000000
            S    1   1.00
                  0.95164440028D-01      1.0000000
            P    4   1.00
                 34.697232244            0.53333657805D-02
                  7.9582622826           0.35864109092D-01
                  2.3780826883           0.14215873329
                  0.81433208183          0.34270471845
            P    1   1.00
                  0.28887547253           .46445822433
            P    1   1.00
                  0.10056823671           .24955789874
            D    1   1.00
                  1.09700000             1.0000000
            D    1   1.00
                  0.31800000             1.0000000
            F    1   1.00
                  0.76100000             1.0000000
 AtFile(1): /zfs/curium/svicchi/00-MOF/01-Gaussian/zw-basis-set/def2-TZVP/Fe.gbs
            !----------------------------------------------------------------------
            ! Basis Set Exchange
            ! Version v0.9
            ! https://www.basissetexchange.org
            !----------------------------------------------------------------------
            !   Basis set: def2-TZVP
            ! Description: def2-TZVP
            !        Role: orbital
            !     Version: 1  (Data from Turbomole 7.3)
            !----------------------------------------------------------------------
            Fe     0
            S    8   1.00
             300784.8463700              0.22806273096D-03
              45088.9705570              0.17681788761D-02
              10262.5163170              0.91927083490D-02
               2905.2897293              0.37355495807D-01
                946.11487137             0.12151108426
                339.87832894             0.28818881468
                131.94425588             0.41126612677
                 52.111494077            0.21518583573
            S    4   1.00
                329.48839267            -0.24745216477D-01
                101.92332739            -0.11683089050
                 16.240462745            0.55293621136
                  6.8840675801           0.53601640182
            S    2   1.00
                 10.470693782           -0.22912708577
                  1.7360039648           0.71159319984
            S    1   1.00
                  0.72577288979          1.0000000
            S    1   1.00
                  0.11595528203          1.0000000
            S    1   1.00
                  0.41968227746D-01      1.0000000
            P    6   1.00
               1585.3959970              0.23793960179D-02
                375.38006499             0.19253154755D-01
                120.31816501             0.90021836536D-01
                 44.788749031            0.25798172356
                 17.829278584            0.41492649744
                  7.2247153786           0.24207474784
            P    3   1.00
                 28.143219756           -0.29041755152D-01
                  3.8743241412           0.55312260343
                  1.5410752281           0.96771136842
            P    1   1.00
                  0.58285615250          1.0000000
            P    1   1.00
                  0.1349150              1.0000000
            D    4   1.00
                 61.996675034            0.11971972255D-01
                 17.873732552            0.73210135410D-01
                  6.2744782934           0.23103094314
                  2.3552337175           0.39910706494
            D    1   1.00
                  0.85432239901           .41391589765
            D    1   1.00
                  0.27869254413           .21909269782
            D    1   1.00
                  0.0910000              1.0000000
            F    1   1.00
                  1.5980000              1.0000000
 AtFile(1): /zfs/curium/svicchi/00-MOF/01-Gaussian/zw-basis-set/def2-TZVP/N.gbs
            !----------------------------------------------------------------------
            ! Basis Set Exchange
            ! Version v0.9
            ! https://www.basissetexchange.org
            !----------------------------------------------------------------------
            !   Basis set: def2-TZVP
            ! Description: def2-TZVP
            !        Role: orbital
            !     Version: 1  (Data from Turbomole 7.3)
            !----------------------------------------------------------------------
            N     0
            S    6   1.00
              19730.8006470              0.21887984991D-03
               2957.8958745              0.16960708803D-02
                673.22133595             0.87954603538D-02
                190.68249494             0.35359382605D-01
                 62.295441898            0.11095789217
                 22.654161182            0.24982972552
            S    2   1.00
                  8.9791477428           0.40623896148
                  3.6863002370           0.24338217176
            S    1   1.00
                  0.84660076805          1.0000000
            S    1   1.00
                  0.33647133771          1.0000000
            S    1   1.00
                  0.13647653675          1.0000000
            P    4   1.00
                 49.200380510            0.55552416751D-02
                 11.346790537            0.38052379723D-01
                  3.4273972411           0.14953671029
                  1.1785525134           0.34949305230
            P    1   1.00
                  0.41642204972           .45843153697
            P    1   1.00
                  0.14260826011           .24428771672
            D    1   1.00
                  1.65400000             1.0000000
            D    1   1.00
                  0.46900000             1.0000000
            F    1   1.00
                  1.09300000             1.0000000
 Initial command:
 /software/commercial/gaussian/g16/AVX2/g16/l1.exe "/scratch1/svicchi/G09-83793.pbs02/Gau-197625.inp" -scrdir="/scratch1/svicchi/G09-83793.pbs02/"
 Entering Link 1 = /software/commercial/gaussian/g16/AVX2/g16/l1.exe PID=    197626.
  
 Copyright (c) 1988-2021, Gaussian, Inc.  All Rights Reserved.
  
 This is part of the Gaussian(R) 16 program.  It is based on
 the Gaussian(R) 09 system (copyright 2009, Gaussian, Inc.),
 the Gaussian(R) 03 system (copyright 2003, Gaussian, Inc.),
 the Gaussian(R) 98 system (copyright 1998, Gaussian, Inc.),
 the Gaussian(R) 94 system (copyright 1995, Gaussian, Inc.),
 the Gaussian 92(TM) system (copyright 1992, Gaussian, Inc.),
 the Gaussian 90(TM) system (copyright 1990, Gaussian, Inc.),
 the Gaussian 88(TM) system (copyright 1988, Gaussian, Inc.),
 the Gaussian 86(TM) system (copyright 1986, Carnegie Mellon
 University), and the Gaussian 82(TM) system (copyright 1983,
 Carnegie Mellon University). Gaussian is a federally registered
 trademark of Gaussian, Inc.
  
 This software contains proprietary and confidential information,
 including trade secrets, belonging to Gaussian, Inc.
  
 This software is provided under written license and may be
 used, copied, transmitted, or stored only in accord with that
 written license.
  
 The following legend is applicable only to US Government
 contracts under FAR:
  
                    RESTRICTED RIGHTS LEGEND
  
 Use, reproduction and disclosure by the US Government is
 subject to restrictions as set forth in subparagraphs (a)
 and (c) of the Commercial Computer Software - Restricted
 Rights clause in FAR 52.227-19.
  
 Gaussian, Inc.
 340 Quinnipiac St., Bldg. 40, Wallingford CT 06492
  
  
 ---------------------------------------------------------------
 Warning -- This program may not be used in any manner that
 competes with the business of Gaussian, Inc. or will provide
 assistance to any competitor of Gaussian, Inc.  The licensee
 of this program is prohibited from giving any competitor of
 Gaussian, Inc. access to this program.  By using this program,
 the user acknowledges that Gaussian, Inc. is engaged in the
 business of creating and licensing software in the field of
 computational chemistry and represents and warrants to the
 licensee that it is not a competitor of Gaussian, Inc. and that
 it will not use this program in any manner prohibited above.
 ---------------------------------------------------------------
  

 Cite this work as:
 Gaussian 16, Revision C.02,
 M. J. Frisch, G. W. Trucks, H. B. Schlegel, G. E. Scuseria, 
 M. A. Robb, J. R. Cheeseman, G. Scalmani, V. Barone, 
 G. A. Petersson, H. Nakatsuji, X. Li, M. Caricato, A. V. Marenich, 
 J. Bloino, B. G. Janesko, R. Gomperts, B. Mennucci, H. P. Hratchian, 
 J. V. Ortiz, A. F. Izmaylov, J. L. Sonnenberg, D. Williams-Young, 
 F. Ding, F. Lipparini, F. Egidi, J. Goings, B. Peng, A. Petrone, 
 T. Henderson, D. Ranasinghe, V. G. Zakrzewski, J. Gao, N. Rega, 
 G. Zheng, W. Liang, M. Hada, M. Ehara, K. Toyota, R. Fukuda, 
 J. Hasegawa, M. Ishida, T. Nakajima, Y. Honda, O. Kitao, H. Nakai, 
 T. Vreven, K. Throssell, J. A. Montgomery, Jr., J. E. Peralta, 
 F. Ogliaro, M. J. Bearpark, J. J. Heyd, E. N. Brothers, K. N. Kudin, 
 V. N. Staroverov, T. A. Keith, R. Kobayashi, J. Normand, 
 K. Raghavachari, A. P. Rendell, J. C. Burant, S. S. Iyengar, 
 J. Tomasi, M. Cossi, J. M. Millam, M. Klene, C. Adamo, R. Cammi, 
 J. W. Ochterski, R. L. Martin, K. Morokuma, O. Farkas, 
 J. B. Foresman, and D. J. Fox, Gaussian, Inc., Wallingford CT, 2019.
 
 ******************************************
 Gaussian 16:  ES64L-G16RevC.02  7-Dec-2021
                 1-Feb-2023 
 ******************************************
 %NProcShared=2
 Will use up to    2 processors via shared memory.
 %mem=110gb
 %chk=/scratch1/svicchi/G09-83793.pbs02/02-freq/FeFeFe-B-1xH2O-freq.chk
 ----------------------------------------------------------------------
 #p freq=raman scale=0.967 guess=read geom=allcheck gen um06l int=grid=
 ultrafine scf=(xqc,intrep,maxconventionalcycle=150) pop=(hirshfeld) no
 symm
 ----------------------------------------------------------------------
 1/10=4,29=7,30=1,38=1,114=967000/1,3;
 2/12=2,15=1,40=1/2;
 3/5=7,11=2,14=-4,25=1,30=1,71=2,74=-53,75=-5,116=2,140=1/1,2,3;
 4/5=1/1;
 5/5=2,8=3,13=1,17=20,38=6,85=150,98=1/2,8;
 8/6=4,10=90,11=11/1;
 10/13=10,15=4,31=1/2;
 11/6=3,8=1,9=11,15=111,16=1,31=1/1,2,10;
 10/6=1,31=1/2;
 6/7=2,8=2,9=2,10=2,28=1,79=1/1;
 7/8=1,10=1,25=1,30=1/1,2,3,16;
 1/10=4,30=1/3;
 99//99;
 Leave Link    1 at Wed Feb  1 08:56:48 2023, MaxMem= 14763950080 cpu:               0.0 elap:               1.2
 (Enter /software/commercial/gaussian/g16/AVX2/g16/l101.exe)
 Structure from the checkpoint file:  "/scratch1/svicchi/G09-83793.pbs02/02-freq/FeFeFe-B-1xH2O-freq.chk"
 --------------
 FeFeFe-B-1xH2O
 --------------
 Charge =  0 Multiplicity =15
 No Z-Matrix found in chk file; cartesian coordinates used.
  O                                                 1.716778430319     -2.124577431210     -1.589863788012
  O                                                -0.478567995636     -2.498149029099     -1.211447931404
  C                                                 0.600811975153     -2.696230844909     -1.785384906792
  H                                                 0.614276990204     -3.469086437292     -2.573178101542
  O                                                 1.890362322671      2.145380663693      1.164737747980
  O                                                 3.042481320833      0.210869407740      1.162109451581
  C                                                 2.824408730236      1.393492452283      1.520395382166
  H                                                 3.550161950934      1.815081156518      2.236731150971
  O                                                -2.146238279108     -0.107237336426     -1.495642979075
  O                                                 2.695119637473      0.473876997167     -1.576420726380
  O                                                 1.364295652061      2.286857952553     -1.612610228822
  C                                                 2.315367576140      1.576320594858     -2.022443502223
  H                                                 2.883973011450      1.976494307122     -2.879511213972
  O                                                -0.559410486003     -2.089736656592      1.709271382716
  O                                                 1.642511995988     -2.189119329053      1.216766761173
  C                                                 0.616843116588     -2.441119227459      1.906366094469
  H                                                 0.792957946480     -3.060505710899      2.802705458348
  Fe                                               -1.413333958556     -1.138417840773      0.110870393141
  O                                                -2.201793499865      0.273287674941      1.462141119284
  Fe                                                0.128931128683      1.914474374745      0.019416275929
  O                                                -0.904821997279      2.105730514470      1.702045766876
  O                                                -1.462065041329      2.016540720529     -1.147732479802
  Fe                                                1.889804348145     -0.775952523304     -0.165134017689
  O                                                 0.227843885546      0.017623709913     -0.019607930075
  C                                                -1.841803000277      1.316293355785      2.025129714708
  H                                                -2.406067475462      1.615896585251      2.925948686273
  C                                                -2.103796833616      1.107962916669     -1.747236840165
  H                                                -2.709670011887      1.448601780855     -2.604030585724
  N                                                -5.547306325857     -0.102787243025      0.503876930254
  N                                                -4.988625966123      0.622677859903     -0.096577900911
  O                                                -2.746446439522     -2.049382946928      0.203555586459
  O                                                 0.260137370491      4.095811152464      0.066399515603
  H                                                 0.874227815211      4.294690192940     -0.653211906210
  H                                                 0.737151105913      4.298987186571      0.881144620868
 Recover connectivity data from disk.
 ITRead=  0  0  0  0  0  0  0  0  0  0  0  0  0  0  0  0  0  0  0  0
 ITRead=  0  0  0  0  0  0  0  0  0  0  0  0  0  0
 MicOpt= -1 -1 -1 -1 -1 -1 -1 -1 -1 -1 -1 -1 -1 -1 -1 -1 -1 -1 -1 -1
 MicOpt= -1 -1 -1 -1 -1 -1 -1 -1 -1 -1 -1 -1 -1 -1
 NAtoms=     34 NQM=       34 NQMF=       0 NMMI=      0 NMMIF=      0
                NMic=       0 NMicF=      0.
                    Isotopes and Nuclear Properties:
 (Nuclear quadrupole moments (NQMom) in fm**2, nuclear magnetic moments (NMagM)
  in nuclear magnetons)

  Atom         1           2           3           4           5           6           7           8           9          10
 IAtWgt=          16          16          12           1          16          16          12           1          16          16
 AtmWgt=  15.9949146  15.9949146  12.0000000   1.0078250  15.9949146  15.9949146  12.0000000   1.0078250  15.9949146  15.9949146
 NucSpn=           0           0           0           1           0           0           0           1           0           0
 AtZEff=   5.6000000   5.6000000   3.6000000   1.0000000   5.6000000   5.6000000   3.6000000   1.0000000   5.6000000   5.6000000
 NQMom=    0.0000000   0.0000000   0.0000000   0.0000000   0.0000000   0.0000000   0.0000000   0.0000000   0.0000000   0.0000000
 NMagM=    0.0000000   0.0000000   0.0000000   2.7928460   0.0000000   0.0000000   0.0000000   2.7928460   0.0000000   0.0000000
 AtZNuc=   8.0000000   8.0000000   6.0000000   1.0000000   8.0000000   8.0000000   6.0000000   1.0000000   8.0000000   8.0000000

  Atom        11          12          13          14          15          16          17          18          19          20
 IAtWgt=          16          12           1          16          16          12           1          56          16          56
 AtmWgt=  15.9949146  12.0000000   1.0078250  15.9949146  15.9949146  12.0000000   1.0078250  55.9349393  15.9949146  55.9349393
 NucSpn=           0           0           1           0           0           0           1           0           0           0
 AtZEff=   5.6000000   3.6000000   1.0000000   5.6000000   5.6000000   3.6000000   1.0000000  25.2200000   5.6000000  25.2200000
 NQMom=    0.0000000   0.0000000   0.0000000   0.0000000   0.0000000   0.0000000   0.0000000   0.0000000   0.0000000   0.0000000
 NMagM=    0.0000000   0.0000000   2.7928460   0.0000000   0.0000000   0.0000000   2.7928460   0.0000000   0.0000000   0.0000000
 AtZNuc=   8.0000000   6.0000000   1.0000000   8.0000000   8.0000000   6.0000000   1.0000000  26.0000000   8.0000000  26.0000000

  Atom        21          22          23          24          25          26          27          28          29          30
 IAtWgt=          16          16          56          16          12           1          12           1          14          14
 AtmWgt=  15.9949146  15.9949146  55.9349393  15.9949146  12.0000000   1.0078250  12.0000000   1.0078250  14.0030740  14.0030740
 NucSpn=           0           0           0           0           0           1           0           1           2           2
 AtZEff=   5.6000000   5.6000000  25.2200000   5.6000000   3.6000000   1.0000000   3.6000000   1.0000000   4.5500000   4.5500000
 NQMom=    0.0000000   0.0000000   0.0000000   0.0000000   0.0000000   0.0000000   0.0000000   0.0000000   2.0440000   2.0440000
 NMagM=    0.0000000   0.0000000   0.0000000   0.0000000   0.0000000   2.7928460   0.0000000   2.7928460   0.4037610   0.4037610
 AtZNuc=   8.0000000   8.0000000  26.0000000   8.0000000   6.0000000   1.0000000   6.0000000   1.0000000   7.0000000   7.0000000

  Atom        31          32          33          34
 IAtWgt=          16          16           1           1
 AtmWgt=  15.9949146  15.9949146   1.0078250   1.0078250
 NucSpn=           0           0           1           1
 AtZEff=   5.6000000   5.6000000   1.0000000   1.0000000
 NQMom=    0.0000000   0.0000000   0.0000000   0.0000000
 NMagM=    0.0000000   0.0000000   2.7928460   2.7928460
 AtZNuc=   8.0000000   8.0000000   1.0000000   1.0000000
 Leave Link  101 at Wed Feb  1 08:56:50 2023, MaxMem= 14763950080 cpu:               0.2 elap:               0.8
 (Enter /software/commercial/gaussian/g16/AVX2/g16/l103.exe)

 GradGradGradGradGradGradGradGradGradGradGradGradGradGradGradGradGradGrad
 Berny optimization.
 Initialization pass.
 Trust Radius=3.00D-01 FncErr=1.00D-07 GrdErr=1.00D-07 EigMax=2.50D+02 EigMin=1.00D-04
 Number of steps in this run=      2 maximum allowed number of steps=      2.
 GradGradGradGradGradGradGradGradGradGradGradGradGradGradGradGradGradGrad

 Leave Link  103 at Wed Feb  1 08:56:52 2023, MaxMem= 14763950080 cpu:               0.1 elap:               0.5
 (Enter /software/commercial/gaussian/g16/AVX2/g16/l202.exe)
                          Input orientation:                          
 ---------------------------------------------------------------------
 Center     Atomic      Atomic             Coordinates (Angstroms)
 Number     Number       Type             X           Y           Z
 ---------------------------------------------------------------------
      1          8           0        1.716778   -2.124577   -1.589864
      2          8           0       -0.478568   -2.498149   -1.211448
      3          6           0        0.600812   -2.696231   -1.785385
      4          1           0        0.614277   -3.469086   -2.573178
      5          8           0        1.890362    2.145381    1.164738
      6          8           0        3.042481    0.210869    1.162109
      7          6           0        2.824409    1.393492    1.520395
      8          1           0        3.550162    1.815081    2.236731
      9          8           0       -2.146238   -0.107237   -1.495643
     10          8           0        2.695120    0.473877   -1.576421
     11          8           0        1.364296    2.286858   -1.612610
     12          6           0        2.315368    1.576321   -2.022444
     13          1           0        2.883973    1.976494   -2.879511
     14          8           0       -0.559410   -2.089737    1.709271
     15          8           0        1.642512   -2.189119    1.216767
     16          6           0        0.616843   -2.441119    1.906366
     17          1           0        0.792958   -3.060506    2.802705
     18         26           0       -1.413334   -1.138418    0.110870
     19          8           0       -2.201793    0.273288    1.462141
     20         26           0        0.128931    1.914474    0.019416
     21          8           0       -0.904822    2.105731    1.702046
     22          8           0       -1.462065    2.016541   -1.147732
     23         26           0        1.889804   -0.775953   -0.165134
     24          8           0        0.227844    0.017624   -0.019608
     25          6           0       -1.841803    1.316293    2.025130
     26          1           0       -2.406067    1.615897    2.925949
     27          6           0       -2.103797    1.107963   -1.747237
     28          1           0       -2.709670    1.448602   -2.604031
     29          7           0       -5.547306   -0.102787    0.503877
     30          7           0       -4.988626    0.622678   -0.096578
     31          8           0       -2.746446   -2.049383    0.203556
     32          8           0        0.260137    4.095811    0.066400
     33          1           0        0.874228    4.294690   -0.653212
     34          1           0        0.737151    4.298987    0.881145
 ---------------------------------------------------------------------
                    Distance matrix (angstroms):
                    1          2          3          4          5
     1  O    0.000000
     2  O    2.258827   0.000000
     3  C    1.269014   1.238427   0.000000
     4  H    1.997529   1.997833   1.103678   0.000000
     5  O    5.084339   5.728914   5.814410   6.864594   0.000000
     6  O    3.845147   5.036898   4.806319   5.778462   2.251604
     7  C    4.824663   5.789430   5.709501   6.729539   1.250708
     8  H    5.790081   6.835536   6.725178   7.725094   2.003298
     9  O    4.359064   2.928882   3.785911   4.481468   5.333485
    10  O    2.776562   4.363306   3.805177   4.568412   3.309911
    11  O    4.425553   5.143284   5.044198   5.883546   2.830269
    12  C    3.773868   5.006505   4.609837   5.352864   3.265361
    13  H    4.454697   5.840509   5.314536   5.907598   4.167941
    14  O    4.008309   2.950244   3.731833   4.649680   4.922817
    15  O    2.808355   3.238936   3.217952   4.130286   4.341892
    16  C    3.678815   3.305139   3.700590   4.595981   4.817452
    17  H    4.585201   4.248111   4.606538   5.394348   5.566730
    18  Fe   3.696297   2.114517   3.174799   4.092351   4.775812
    19  O    5.515405   4.218820   5.217189   6.182186   4.509869
    20  Fe   4.628713   4.621182   4.973789   5.994984   2.113698
    21  O    5.966989   5.464965   6.122740   7.187752   2.846634
    22  O    5.239216   4.621012   5.183848   6.036157   4.074664
    23  Fe   1.969412   3.109650   2.823860   3.831268   3.209789
    24  O    3.044939   2.872040   3.259153   4.339032   2.948558
    25  C    6.129541   5.184960   6.048697   7.076484   3.918765
    26  H    7.168094   6.144809   7.059209   8.075886   4.673492
    27  C    5.007083   3.991551   4.667789   5.386974   5.050657
    28  H    5.778373   4.742778   5.367412   5.935759   5.987438
    29  N    7.825491   5.862781   7.054504   7.665856   7.798071
    30  N    7.398632   5.596706   6.716326   7.366723   7.157515
    31  O    4.810653   2.710516   3.946953   4.584787   6.326129
    32  O    6.599867   6.757136   7.048191   8.020004   2.769144
    33  H    6.541728   6.948694   7.087281   8.001879   2.992825
    34  H    6.951815   7.215121   7.487459   8.502377   2.459338
                    6          7          8          9         10
     6  O    0.000000
     7  C    1.254799   0.000000
     8  H    1.996509   1.103445   0.000000
     9  O    5.838463   6.004666   7.076362   0.000000
    10  O    2.772973   3.233060   4.131592   4.876778   0.000000
    11  O    3.850338   3.570120   4.451743   4.250791   2.249289
    12  C    3.540414   3.583888   4.440979   4.797688   1.248411
    13  H    4.413304   4.438763   5.161957   5.617834   1.997891
    14  O    4.308805   4.859917   5.693365   4.088985   5.287708
    15  O    2.779001   3.784730   4.551162   5.103531   4.000179
    16  C    3.670243   4.441460   5.179647   4.965409   4.994621
    17  H    4.295789   5.060554   5.629729   5.986357   5.940272
    18  Fe   4.772837   5.133789   6.154570   2.044839   4.725022
    19  O    5.253221   5.149851   6.005173   2.982679   5.766529
    20  Fe   3.563256   3.128891   4.078135   3.399870   3.347737
    21  O    4.411715   3.800979   4.496359   4.082102   5.135257
    22  O    5.374640   5.087333   6.051248   2.258222   4.454859
    23  Fe   2.015951   2.901894   3.903742   4.301985   2.049960
    24  O    3.058755   3.317646   4.399968   2.798309   2.952843
    25  C    5.081634   4.694065   5.419119   3.809850   5.853588
    26  H    5.896772   5.420602   5.999280   4.752597   6.899105
    27  C    5.979402   5.919980   6.952645   1.241697   4.843639
    28  H    6.985917   6.902170   7.921665   1.991636   5.587291
    29  N    8.620679   8.564915   9.457533   3.945296   8.520432
    30  N    8.139568   8.015751   8.931800   3.251050   7.826367
    31  O    6.288024   6.679961   7.662582   2.649425   6.256660
    32  O    4.902529   3.999015   4.553716   5.088835   4.663304
    33  H    4.967324   4.116397   4.654122   5.404616   4.332041
    34  H    4.701723   3.634169   3.990042   5.777358   4.950226
                   11         12         13         14         15
    11  O    0.000000
    12  C    1.255932   0.000000
    13  H    2.002694   1.103638   0.000000
    14  O    5.821522   5.969089   7.031931   0.000000
    15  O    5.302561   5.012360   5.972692   2.258517   0.000000
    16  C    5.941014   5.870294   6.896362   1.243338   1.261367
    17  H    6.958142   6.862940   7.875995   1.991706   1.999064
    18  Fe   4.734778   5.081737   6.091954   2.046724   3.415432
    19  O    5.121089   5.851920   6.900426   2.888318   4.571908
    20  Fe   2.080458   3.010655   3.999735   4.400356   4.534761
    21  O    4.021026   4.951941   5.946624   4.209668   5.016985
    22  O    2.877064   3.902296   4.678537   5.083185   5.737319
    23  Fe   3.428142   3.027192   3.991513   3.352324   1.991945
    24  O    2.996432   3.286129   4.367063   2.837210   2.898210
    25  C    4.945120   5.807971   6.842830   3.653127   5.008175
    26  H    5.938379   6.839598   7.862438   4.315340   5.812955
    27  C    3.665458   4.452428   5.187894   4.955589   5.804386
    28  H    4.275837   5.060194   5.625247   5.978966   6.839079
    29  N    7.613157   8.427535   9.319721   5.502731   7.520271
    30  N    6.739990   7.613587   8.459040   5.498748   7.321412
    31  O    6.244969   6.612319   7.577243   2.655548   4.506560
    32  O    2.703803   3.864592   4.478215   6.452262   6.537175
    33  H    2.278596   3.367672   3.790715   6.956835   6.791676
    34  H    3.265086   4.281881   4.913792   6.571351   6.559561
                   16         17         18         19         20
    16  C    0.000000
    17  H    1.103667   0.000000
    18  Fe   3.007067   3.975943   0.000000
    19  O    3.938280   4.677588   2.107253   0.000000
    20  Fe   4.771775   5.739169   3.421563   3.194875   0.000000
    21  O    4.799068   5.548325   3.648962   2.257772   1.984053
    22  O    5.789655   6.816707   3.397090   3.224526   1.975835
    23  Fe   2.946918   3.902605   3.334409   4.526599   3.220734
    24  O    3.147398   4.214224   2.011696   2.857286   1.899829
    25  C    4.491903   5.167491   3.142226   1.238713   2.874804
    26  H    5.161096   5.667247   4.061580   1.996762   3.868242
    27  C    5.774658   6.816839   2.995919   3.317588   2.959155
    28  H    6.821972   7.863412   3.967851   4.262987   3.893221
    29  N    6.740290   7.364215   4.279803   3.500308   6.043486
    30  N    6.694768   7.443010   3.990890   3.212182   5.279354
    31  O    3.790084   4.506144   1.617293   2.697310   4.900395
    32  O    6.800307   7.680113   5.495420   4.756142   2.185784
    33  H    7.210327   8.127046   5.944361   5.487103   2.583278
    34  H    6.818694   7.606421   5.897735   5.018088   2.607376
                   21         22         23         24         25
    21  O    0.000000
    22  O    2.905118   0.000000
    23  Fe   4.427233   4.471973   0.000000
    24  O    2.933805   2.850285   1.847445   0.000000
    25  C    1.267094   3.271330   4.806209   3.186053   0.000000
    26  H    1.997902   4.200778   5.807775   4.262425   1.104369
    27  C    3.785582   1.263621   4.690526   3.100014   3.787188
    28  H    4.715039   1.999969   5.661451   4.166044   4.711669
    29  N    5.278809   4.889638   7.497422   5.800077   4.249559
    30  N    4.702334   3.935024   7.019521   5.252007   3.858140
    31  O    4.785606   4.472958   4.822072   3.628873   3.932466
    32  O    2.827170   2.960315   5.142325   4.079222   3.997561
    33  H    3.674752   3.300421   5.194327   4.371792   4.839544
    34  H    2.860127   3.763304   5.308326   4.404636   4.105626
                   26         27         28         29         30
    26  H    0.000000
    27  C    4.710417   0.000000
    28  H    5.540833   1.103274   0.000000
    29  N    4.322926   4.288495   4.485318   0.000000
    30  N    4.097775   3.358931   3.487565   1.094975   0.000000
    31  O    4.578379   3.766620   4.485509   3.424068   3.501051
    32  O    4.629865   4.219561   4.791521   7.179556   6.295930
    33  H    5.544967   4.496749   4.974961   7.868466   6.940214
    34  H    4.610859   5.016175   5.670249   7.681950   6.874279
                   31         32         33         34
    31  O    0.000000
    32  O    6.842643   0.000000
    33  H    7.354631   0.966696   0.000000
    34  H    7.272990   0.965729   1.540473   0.000000
 Symmetry turned off by external request.
 Stoichiometry    C6H8Fe3N2O15(15)
 Framework group  C1[X(C6H8Fe3N2O15)]
 Deg. of freedom    96
 Full point group                 C1      NOp   1
 Rotational constants (GHZ):           0.2241815           0.1765106           0.1349043
 Leave Link  202 at Wed Feb  1 08:56:54 2023, MaxMem= 14763950080 cpu:               0.1 elap:               0.8
 (Enter /software/commercial/gaussian/g16/AVX2/g16/l301.exe)
 General basis read from cards:  (5D, 7F)
 Centers:       4      8     13     17     26     28     33     34
 S 3 1.00
     Exponent=  3.4061341000D+01 Coefficients=  6.0251978000D-03
     Exponent=  5.1235746000D+00 Coefficients=  4.5021094000D-02
     Exponent=  1.1646626000D+00 Coefficients=  2.0189726000D-01
 S 1 1.00
     Exponent=  3.2723041000D-01 Coefficients=  1.0000000000D+00
 S 1 1.00
     Exponent=  1.0307241000D-01 Coefficients=  1.0000000000D+00
 P 1 1.00
     Exponent=  8.0000000000D-01 Coefficients=  1.0000000000D+00
 ****
 Centers:       1      2      5      6      9     10     11     14     15     19
 Centers:      21     22     24     31     32
 S 6 1.00
     Exponent=  2.7032382631D+04 Coefficients=  2.1726302465D-04
     Exponent=  4.0523871392D+03 Coefficients=  1.6838662199D-03
     Exponent=  9.2232722710D+02 Coefficients=  8.7395616265D-03
     Exponent=  2.6124070989D+02 Coefficients=  3.5239968808D-02
     Exponent=  8.5354641351D+01 Coefficients=  1.1153519115D-01
     Exponent=  3.1035035245D+01 Coefficients=  2.5588953961D-01
 S 2 1.00
     Exponent=  1.2260860728D+01 Coefficients=  3.9768730901D-01
     Exponent=  4.9987076005D+00 Coefficients=  2.4627849430D-01
 S 1 1.00
     Exponent=  1.1703108158D+00 Coefficients=  1.0000000000D+00
 S 1 1.00
     Exponent=  4.6474740994D-01 Coefficients=  1.0000000000D+00
 S 1 1.00
     Exponent=  1.8504536357D-01 Coefficients=  1.0000000000D+00
 P 4 1.00
     Exponent=  6.3274954801D+01 Coefficients=  6.0685103418D-03
     Exponent=  1.4627049379D+01 Coefficients=  4.1912575824D-02
     Exponent=  4.4501223456D+00 Coefficients=  1.6153841088D-01
     Exponent=  1.5275799647D+00 Coefficients=  3.5706951311D-01
 P 1 1.00
     Exponent=  5.2935117943D-01 Coefficients=  4.4794207502D-01
 P 1 1.00
     Exponent=  1.7478421270D-01 Coefficients=  2.4446069663D-01
 D 1 1.00
     Exponent=  2.3140000000D+00 Coefficients=  1.0000000000D+00
 D 1 1.00
     Exponent=  6.4500000000D-01 Coefficients=  1.0000000000D+00
 F 1 1.00
     Exponent=  1.4280000000D+00 Coefficients=  1.0000000000D+00
 ****
 Centers:       3      7     12     16     25     27
 S 6 1.00
     Exponent=  1.3575349682D+04 Coefficients=  2.2245814352D-04
     Exponent=  2.0352333680D+03 Coefficients=  1.7232738252D-03
     Exponent=  4.6322562359D+02 Coefficients=  8.9255715314D-03
     Exponent=  1.3120019598D+02 Coefficients=  3.5727984502D-02
     Exponent=  4.2853015891D+01 Coefficients=  1.1076259931D-01
     Exponent=  1.5584185766D+01 Coefficients=  2.4295627626D-01
 S 2 1.00
     Exponent=  6.2067138508D+00 Coefficients=  4.1440263448D-01
     Exponent=  2.5764896527D+00 Coefficients=  2.3744968655D-01
 S 1 1.00
     Exponent=  5.7696339419D-01 Coefficients=  1.0000000000D+00
 S 1 1.00
     Exponent=  2.2972831358D-01 Coefficients=  1.0000000000D+00
 S 1 1.00
     Exponent=  9.5164440028D-02 Coefficients=  1.0000000000D+00
 P 4 1.00
     Exponent=  3.4697232244D+01 Coefficients=  5.3333657805D-03
     Exponent=  7.9582622826D+00 Coefficients=  3.5864109092D-02
     Exponent=  2.3780826883D+00 Coefficients=  1.4215873329D-01
     Exponent=  8.1433208183D-01 Coefficients=  3.4270471845D-01
 P 1 1.00
     Exponent=  2.8887547253D-01 Coefficients=  4.6445822433D-01
 P 1 1.00
     Exponent=  1.0056823671D-01 Coefficients=  2.4955789874D-01
 D 1 1.00
     Exponent=  1.0970000000D+00 Coefficients=  1.0000000000D+00
 D 1 1.00
     Exponent=  3.1800000000D-01 Coefficients=  1.0000000000D+00
 F 1 1.00
     Exponent=  7.6100000000D-01 Coefficients=  1.0000000000D+00
 ****
 Centers:      18     20     23
 S 8 1.00
     Exponent=  3.0078484637D+05 Coefficients=  2.2806273096D-04
     Exponent=  4.5088970557D+04 Coefficients=  1.7681788761D-03
     Exponent=  1.0262516317D+04 Coefficients=  9.1927083490D-03
     Exponent=  2.9052897293D+03 Coefficients=  3.7355495807D-02
     Exponent=  9.4611487137D+02 Coefficients=  1.2151108426D-01
     Exponent=  3.3987832894D+02 Coefficients=  2.8818881468D-01
     Exponent=  1.3194425588D+02 Coefficients=  4.1126612677D-01
     Exponent=  5.2111494077D+01 Coefficients=  2.1518583573D-01
 S 4 1.00
     Exponent=  3.2948839267D+02 Coefficients= -2.4745216477D-02
     Exponent=  1.0192332739D+02 Coefficients= -1.1683089050D-01
     Exponent=  1.6240462745D+01 Coefficients=  5.5293621136D-01
     Exponent=  6.8840675801D+00 Coefficients=  5.3601640182D-01
 S 2 1.00
     Exponent=  1.0470693782D+01 Coefficients= -2.2912708577D-01
     Exponent=  1.7360039648D+00 Coefficients=  7.1159319984D-01
 S 1 1.00
     Exponent=  7.2577288979D-01 Coefficients=  1.0000000000D+00
 S 1 1.00
     Exponent=  1.1595528203D-01 Coefficients=  1.0000000000D+00
 S 1 1.00
     Exponent=  4.1968227746D-02 Coefficients=  1.0000000000D+00
 P 6 1.00
     Exponent=  1.5853959970D+03 Coefficients=  2.3793960179D-03
     Exponent=  3.7538006499D+02 Coefficients=  1.9253154755D-02
     Exponent=  1.2031816501D+02 Coefficients=  9.0021836536D-02
     Exponent=  4.4788749031D+01 Coefficients=  2.5798172356D-01
     Exponent=  1.7829278584D+01 Coefficients=  4.1492649744D-01
     Exponent=  7.2247153786D+00 Coefficients=  2.4207474784D-01
 P 3 1.00
     Exponent=  2.8143219756D+01 Coefficients= -2.9041755152D-02
     Exponent=  3.8743241412D+00 Coefficients=  5.5312260343D-01
     Exponent=  1.5410752281D+00 Coefficients=  9.6771136842D-01
 P 1 1.00
     Exponent=  5.8285615250D-01 Coefficients=  1.0000000000D+00
 P 1 1.00
     Exponent=  1.3491500000D-01 Coefficients=  1.0000000000D+00
 D 4 1.00
     Exponent=  6.1996675034D+01 Coefficients=  1.1971972255D-02
     Exponent=  1.7873732552D+01 Coefficients=  7.3210135410D-02
     Exponent=  6.2744782934D+00 Coefficients=  2.3103094314D-01
     Exponent=  2.3552337175D+00 Coefficients=  3.9910706494D-01
 D 1 1.00
     Exponent=  8.5432239901D-01 Coefficients=  4.1391589765D-01
 D 1 1.00
     Exponent=  2.7869254413D-01 Coefficients=  2.1909269782D-01
 D 1 1.00
     Exponent=  9.1000000000D-02 Coefficients=  1.0000000000D+00
 F 1 1.00
     Exponent=  1.5980000000D+00 Coefficients=  1.0000000000D+00
 ****
 Centers:      29     30
 S 6 1.00
     Exponent=  1.9730800647D+04 Coefficients=  2.1887984991D-04
     Exponent=  2.9578958745D+03 Coefficients=  1.6960708803D-03
     Exponent=  6.7322133595D+02 Coefficients=  8.7954603538D-03
     Exponent=  1.9068249494D+02 Coefficients=  3.5359382605D-02
     Exponent=  6.2295441898D+01 Coefficients=  1.1095789217D-01
     Exponent=  2.2654161182D+01 Coefficients=  2.4982972552D-01
 S 2 1.00
     Exponent=  8.9791477428D+00 Coefficients=  4.0623896148D-01
     Exponent=  3.6863002370D+00 Coefficients=  2.4338217176D-01
 S 1 1.00
     Exponent=  8.4660076805D-01 Coefficients=  1.0000000000D+00
 S 1 1.00
     Exponent=  3.3647133771D-01 Coefficients=  1.0000000000D+00
 S 1 1.00
     Exponent=  1.3647653675D-01 Coefficients=  1.0000000000D+00
 P 4 1.00
     Exponent=  4.9200380510D+01 Coefficients=  5.5552416751D-03
     Exponent=  1.1346790537D+01 Coefficients=  3.8052379723D-02
     Exponent=  3.4273972411D+00 Coefficients=  1.4953671029D-01
     Exponent=  1.1785525134D+00 Coefficients=  3.4949305230D-01
 P 1 1.00
     Exponent=  4.1642204972D-01 Coefficients=  4.5843153697D-01
 P 1 1.00
     Exponent=  1.4260826011D-01 Coefficients=  2.4428771672D-01
 D 1 1.00
     Exponent=  1.6540000000D+00 Coefficients=  1.0000000000D+00
 D 1 1.00
     Exponent=  4.6900000000D-01 Coefficients=  1.0000000000D+00
 F 1 1.00
     Exponent=  1.0930000000D+00 Coefficients=  1.0000000000D+00
 ****
 Ernie: Thresh=  0.10000D-02 Tol=  0.10000D-05 Strict=F.
   896 basis functions,  1543 primitive gaussians,  1032 cartesian basis functions
   135 alpha electrons      121 beta electrons
       nuclear repulsion energy      4757.2799961031 Hartrees.
 IExCor= 4134 DFT=T Ex+Corr=M06L ExCW=0 ScaHFX=  0.000000
 ScaDFX=  1.000000  1.000000  1.000000  1.000000 ScalE2=  1.000000  1.000000
 IRadAn=      5 IRanWt=     -1 IRanGd=            0 ICorTp=0 IEmpDi=  4
 NAtoms=   34 NActive=   34 NUniq=   34 SFac= 1.00D+00 NAtFMM=   60 NAOKFM=F Big=F
 Integral buffers will be    131072 words long.
 Raffenetti 2 integral format.
 Two-electron integral symmetry is turned off.
 Leave Link  301 at Wed Feb  1 08:56:56 2023, MaxMem= 14763950080 cpu:               0.1 elap:               0.6
 (Enter /software/commercial/gaussian/g16/AVX2/g16/l302.exe)
 NPDir=0 NMtPBC=     1 NCelOv=     1 NCel=       1 NClECP=     1 NCelD=      1
         NCelK=      1 NCelE2=     1 NClLst=     1 CellRange=     0.0.
 One-electron integrals computed using PRISM.
 NBasis=   896 RedAO= T EigKep=  2.02D-04  NBF=   896
 NBsUse=   896 1.00D-06 EigRej= -1.00D+00 NBFU=   896
 Precomputing XC quadrature grid using
 IXCGrd= 4 IRadAn=           5 IRanWt=          -1 IRanGd=           0 AccXCQ= 0.00D+00.
 Generated NRdTot=       0 NPtTot=           0 NUsed=           0 NTot=          32
 NSgBfM=  1013  1013  1013  1013  1013 MxSgAt=    34 MxSgA2=    34.
 Leave Link  302 at Wed Feb  1 08:56:59 2023, MaxMem= 14763950080 cpu:               2.7 elap:               2.5
 (Enter /software/commercial/gaussian/g16/AVX2/g16/l303.exe)
 DipDrv:  MaxL=1.
 Leave Link  303 at Wed Feb  1 08:57:02 2023, MaxMem= 14763950080 cpu:               0.2 elap:               1.1
 (Enter /software/commercial/gaussian/g16/AVX2/g16/l401.exe)
 Initial guess from the checkpoint file:  "/scratch1/svicchi/G09-83793.pbs02/02-freq/FeFeFe-B-1xH2O-freq.chk"
 B after Tr=     0.000000    0.000000    0.000000
         Rot=    1.000000    0.000000    0.000000    0.000000 Ang=   0.00 deg.
 Guess basis will be translated and rotated to current coordinates.
 JPrj=2 DoOrth=T DoCkMO=T.
 Initial guess <Sx>= 0.0000 <Sy>= 0.0000 <Sz>= 7.0000 <S**2>=56.0871 S= 7.0058
 Leave Link  401 at Wed Feb  1 08:57:06 2023, MaxMem= 14763950080 cpu:               2.3 elap:               3.1
 (Enter /software/commercial/gaussian/g16/AVX2/g16/l502.exe)
 Two-electron integral symmetry not used.
 UHF open shell SCF:
 Using DIIS extrapolation, IDIIS=  1040.
 NGot= 14763950080 LenX= 14761806610 LenY= 14760740554
 Requested convergence on RMS density matrix=1.00D-08 within 150 cycles.
 Requested convergence on MAX density matrix=1.00D-06.
 Requested convergence on             energy=1.00D-06.
 No special actions if energy rises.
 Fock matrices will be formed incrementally for  20 cycles.

 Cycle   1  Pass 1  IDiag  1:
 FoFJK:  IHMeth= 1 ICntrl=     500 DoSepK=F KAlg= 0 I1Cent=           0 FoldK=F
 IRaf= 770000000 NMat=       1 IRICut=       1 DoRegI=T DoRafI=F ISym2E= 0 IDoP0=0 IntGTp=1.
 FoFCou: FMM=F IPFlag=           0 FMFlag=      100000 FMFlg1=           0
         NFxFlg=           0 DoJE=T BraDBF=F KetDBF=F FulRan=T
         wScrn=  0.000000 ICntrl=       500 IOpCl=  0 I1Cent=           0 NGrid=           0
         NMat0=    1 NMatS0=      1 NMatT0=    0 NMatD0=    1 NMtDS0=    0 NMtDT0=    0
 Symmetry not used in FoFCou.
 E= -5263.28781019448    
 DIIS: error= 3.96D-07 at cycle   1 NSaved=   1.
 NSaved= 1 IEnMin= 1 EnMin= -5263.28781019448     IErMin= 1 ErrMin= 3.96D-07
 ErrMax= 3.96D-07  0.00D+00 EMaxC= 1.00D-01 BMatC= 2.91D-10 BMatP= 2.91D-10
 IDIUse=1 WtCom= 1.00D+00 WtEn= 0.00D+00
 Coeff-Com:  0.100D+01
 Coeff:      0.100D+01
 Gap=     0.078 Goal=   None    Shift=    0.000
 Gap=     0.068 Goal=   None    Shift=    0.000
 RMSDP=2.67D-08 MaxDP=4.43D-06              OVMax= 1.69D-05

 Cycle   2  Pass 1  IDiag  1:
 RMSU=  2.67D-08    CP:  1.00D+00
 E= -5263.28781019364     Delta-E=        0.000000000837 Rises=F Damp=F
 DIIS: error= 1.28D-06 at cycle   2 NSaved=   2.
 NSaved= 2 IEnMin= 1 EnMin= -5263.28781019448     IErMin= 1 ErrMin= 3.96D-07
 ErrMax= 1.28D-06  0.00D+00 EMaxC= 1.00D-01 BMatC= 6.30D-09 BMatP= 2.91D-10
 IDIUse=1 WtCom= 1.00D+00 WtEn= 0.00D+00
 Coeff-Com:  0.826D+00 0.174D+00
 Coeff:      0.826D+00 0.174D+00
 Gap=     0.078 Goal=   None    Shift=    0.000
 Gap=     0.068 Goal=   None    Shift=    0.000
 RMSDP=2.28D-08 MaxDP=3.82D-06 DE= 8.37D-10 OVMax= 1.44D-05

 Cycle   3  Pass 1  IDiag  1:
 RMSU=  4.79D-09    CP:  1.00D+00  1.68D-01
 E= -5263.28781019456     Delta-E=       -0.000000000913 Rises=F Damp=F
 DIIS: error= 6.57D-07 at cycle   3 NSaved=   3.
 NSaved= 3 IEnMin= 3 EnMin= -5263.28781019456     IErMin= 1 ErrMin= 3.96D-07
 ErrMax= 6.57D-07  0.00D+00 EMaxC= 1.00D-01 BMatC= 3.49D-10 BMatP= 2.91D-10
 IDIUse=1 WtCom= 1.00D+00 WtEn= 0.00D+00
 Coeff-Com:  0.703D+00 0.154D+00 0.143D+00
 Coeff:      0.703D+00 0.154D+00 0.143D+00
 Gap=     0.078 Goal=   None    Shift=    0.000
 Gap=     0.068 Goal=   None    Shift=    0.000
 RMSDP=4.60D-09 MaxDP=1.13D-06 DE=-9.13D-10 OVMax= 3.12D-06

 Cycle   4  Pass 1  IDiag  1:
 RMSU=  2.11D-09    CP:  1.00D+00  1.76D-01  1.49D-01
 E= -5263.28781019486     Delta-E=       -0.000000000302 Rises=F Damp=F
 DIIS: error= 2.30D-07 at cycle   4 NSaved=   4.
 NSaved= 4 IEnMin= 4 EnMin= -5263.28781019486     IErMin= 4 ErrMin= 2.30D-07
 ErrMax= 2.30D-07  0.00D+00 EMaxC= 1.00D-01 BMatC= 5.07D-11 BMatP= 2.91D-10
 IDIUse=1 WtCom= 1.00D+00 WtEn= 0.00D+00
 Coeff-Com:  0.533D+00 0.119D+00 0.150D+00 0.198D+00
 Coeff:      0.533D+00 0.119D+00 0.150D+00 0.198D+00
 Gap=     0.078 Goal=   None    Shift=    0.000
 Gap=     0.068 Goal=   None    Shift=    0.000
 RMSDP=1.74D-09 MaxDP=3.14D-07 DE=-3.02D-10 OVMax= 9.53D-07

 SCF Done:  E(UM06L) =  -5263.28781019     A.U. after    4 cycles
            NFock=  4  Conv=0.17D-08     -V/T= 2.0017
 <Sx>= 0.0000 <Sy>= 0.0000 <Sz>= 7.0000 <S**2>=56.0871 S= 7.0058
 <L.S>=  0.00000000000    
 KE= 5.254464347427D+03 PE=-2.200466714382D+04 EE= 6.729634990100D+03
 Annihilation of the first spin contaminant:
 S**2 before annihilation    56.0871,   after    56.0006
 Leave Link  502 at Wed Feb  1 09:09:07 2023, MaxMem= 14763950080 cpu:            1419.9 elap:             719.9
 (Enter /software/commercial/gaussian/g16/AVX2/g16/l508.exe)
 QCSCF skips out because SCF is already converged.
 Leave Link  508 at Wed Feb  1 09:09:09 2023, MaxMem= 14763950080 cpu:               0.0 elap:               0.7
 (Enter /software/commercial/gaussian/g16/AVX2/g16/l801.exe)
 DoSCS=F DFT=T ScalE2(SS,OS)=  1.000000  1.000000
 Range of M.O.s used for correlation:     1   896
 NBasis=   896 NAE=   135 NBE=   121 NFC=     0 NFV=     0
 NROrb=    896 NOA=   135 NOB=   121 NVA=   761 NVB=   775

 **** Warning!!: The largest alpha MO coefficient is  0.23444723D+02


 **** Warning!!: The smallest alpha delta epsilon is  0.78355830D-01


 **** Warning!!: The largest beta MO coefficient is  0.27457860D+02


 **** Warning!!: The smallest beta delta epsilon is  0.67592420D-01

 Leave Link  801 at Wed Feb  1 09:09:11 2023, MaxMem= 14763950080 cpu:               0.1 elap:               1.3
 (Enter /software/commercial/gaussian/g16/AVX2/g16/l1002.exe)
 Minotr:  UHF open shell wavefunction.
          Direct CPHF calculation.
          Differentiating once with respect to electric field.
                with respect to dipole field.
          Electric field/nuclear overlap derivatives assumed to be zero.
          Requested convergence is 1.0D-08 RMS, and 1.0D-07 maximum.
          Secondary convergence is 1.0D-12 RMS, and 1.0D-12 maximum.
          NewPWx=F KeepS1=T KeepF1=T KeepIn=T MapXYZ=F SortEE=F KeepMc=T.
        10455 words used for storage of precomputed grid.
 Two-electron integral symmetry not used.
          MDV=   14763950080 using IRadAn=       1.
          Solving linear equations simultaneously, MaxMat=     384.
          There are     3 degrees of freedom in the 1st order CPHF.  IDoFFX=0 NUNeed=     3.
      3 vectors produced by pass  0 Test12= 6.55D-12 3.33D-08 XBig12= 1.21D+03 9.99D+00.
 AX will form     3 AO Fock derivatives at one time.
 FoFJK:  IHMeth= 1 ICntrl=     500 DoSepK=F KAlg= 0 I1Cent=           0 FoldK=F
 IRaf= 770000000 NMat=       3 IRICut=       1 DoRegI=T DoRafI=F ISym2E= 0 IDoP0=0 IntGTp=1.
 FoFCou: FMM=F IPFlag=           0 FMFlag=      100000 FMFlg1=           0
         NFxFlg=           0 DoJE=T BraDBF=F KetDBF=F FulRan=T
         wScrn=  0.000000 ICntrl=       500 IOpCl=  0 I1Cent=           0 NGrid=           0
         NMat0=    3 NMatS0=      3 NMatT0=    0 NMatD0=    3 NMtDS0=    0 NMtDT0=    0
 Symmetry not used in FoFCou.
      3 vectors produced by pass  1 Test12= 6.55D-12 3.33D-08 XBig12= 6.63D+03 2.16D+01.
      3 vectors produced by pass  2 Test12= 6.55D-12 3.33D-08 XBig12= 3.06D+04 2.93D+01.
      3 vectors produced by pass  3 Test12= 6.55D-12 3.33D-08 XBig12= 4.77D+04 5.21D+01.
      3 vectors produced by pass  4 Test12= 6.55D-12 3.33D-08 XBig12= 7.52D+04 4.24D+01.
      3 vectors produced by pass  5 Test12= 6.55D-12 3.33D-08 XBig12= 5.37D+04 3.03D+01.
      3 vectors produced by pass  6 Test12= 6.55D-12 3.33D-08 XBig12= 2.95D+04 2.44D+01.
      3 vectors produced by pass  7 Test12= 6.55D-12 3.33D-08 XBig12= 3.14D+04 2.70D+01.
      3 vectors produced by pass  8 Test12= 6.55D-12 3.33D-08 XBig12= 1.45D+04 2.35D+01.
      3 vectors produced by pass  9 Test12= 6.55D-12 3.33D-08 XBig12= 9.85D+03 1.55D+01.
      3 vectors produced by pass 10 Test12= 6.55D-12 3.33D-08 XBig12= 4.88D+03 1.09D+01.
      3 vectors produced by pass 11 Test12= 6.55D-12 3.33D-08 XBig12= 2.45D+03 5.83D+00.
      3 vectors produced by pass 12 Test12= 6.55D-12 3.33D-08 XBig12= 3.12D+03 5.92D+00.
      3 vectors produced by pass 13 Test12= 6.55D-12 3.33D-08 XBig12= 9.62D+02 5.02D+00.
      3 vectors produced by pass 14 Test12= 6.55D-12 3.33D-08 XBig12= 4.06D+02 4.22D+00.
      3 vectors produced by pass 15 Test12= 6.55D-12 3.33D-08 XBig12= 2.44D+02 2.36D+00.
      3 vectors produced by pass 16 Test12= 6.55D-12 3.33D-08 XBig12= 5.19D+01 1.30D+00.
      3 vectors produced by pass 17 Test12= 6.55D-12 3.33D-08 XBig12= 9.45D+00 4.17D-01.
      3 vectors produced by pass 18 Test12= 6.55D-12 3.33D-08 XBig12= 1.43D+00 1.42D-01.
      3 vectors produced by pass 19 Test12= 6.55D-12 3.33D-08 XBig12= 2.09D-01 6.08D-02.
      3 vectors produced by pass 20 Test12= 6.55D-12 3.33D-08 XBig12= 2.32D-02 1.67D-02.
      3 vectors produced by pass 21 Test12= 6.55D-12 3.33D-08 XBig12= 2.42D-03 7.99D-03.
      3 vectors produced by pass 22 Test12= 6.55D-12 3.33D-08 XBig12= 3.40D-04 2.45D-03.
      3 vectors produced by pass 23 Test12= 6.55D-12 3.33D-08 XBig12= 3.79D-05 7.22D-04.
      3 vectors produced by pass 24 Test12= 6.55D-12 3.33D-08 XBig12= 5.31D-06 3.22D-04.
      3 vectors produced by pass 25 Test12= 6.55D-12 3.33D-08 XBig12= 6.23D-07 1.39D-04.
      3 vectors produced by pass 26 Test12= 6.55D-12 3.33D-08 XBig12= 8.44D-08 5.38D-05.
      3 vectors produced by pass 27 Test12= 6.55D-12 3.33D-08 XBig12= 7.37D-09 1.52D-05.
      2 vectors produced by pass 28 Test12= 6.55D-12 3.33D-08 XBig12= 7.75D-10 4.22D-06.
      2 vectors produced by pass 29 Test12= 6.55D-12 3.33D-08 XBig12= 7.99D-11 1.15D-06.
      1 vectors produced by pass 30 Test12= 6.55D-12 3.33D-08 XBig12= 6.69D-12 2.94D-07.
      1 vectors produced by pass 31 Test12= 6.55D-12 3.33D-08 XBig12= 6.39D-13 6.44D-08.
 InvSVY:  IOpt=1 It=  1 EMax= 1.42D-14
 Solved reduced A of dimension    90 with     3 vectors.
 End of Minotr F.D. properties file   721 does not exist.
 End of Minotr F.D. properties file   722 does not exist.
 End of Minotr F.D. properties file   788 does not exist.
 Leave Link 1002 at Wed Feb  1 11:35:08 2023, MaxMem= 14763950080 cpu:           17411.9 elap:            8755.8
 (Enter /software/commercial/gaussian/g16/AVX2/g16/l1101.exe)
 Using compressed storage, NAtomX=    34.
 Will process     35 centers per pass.
 Leave Link 1101 at Wed Feb  1 11:35:12 2023, MaxMem= 14763950080 cpu:               3.4 elap:               3.0
 (Enter /software/commercial/gaussian/g16/AVX2/g16/l1102.exe)
 Symmetrizing basis deriv contribution to polar:
 IMax=3 JMax=2 DiffMx= 0.00D+00
 Leave Link 1102 at Wed Feb  1 11:35:12 2023, MaxMem= 14763950080 cpu:               0.2 elap:               0.2
 (Enter /software/commercial/gaussian/g16/AVX2/g16/l1110.exe)
 Forming Gx(P) for the SCF density, NAtomX=    34.
 Integral derivatives from FoFJK, PRISM(SPDF).
 Do as many integral derivatives as possible in FoFJK.
 G2DrvN: MDV=   14763946374.
 G2DrvN: will do    35 centers at a time, making    1 passes.
 PxScal for G2LodP:  IOpCl= 1 ISclPx=1 IMOff=     1 NMtTot=     4 NTT=  401856 ScalPx= 1.43D+00
 Calling FoFCou, ICntrl=  3507 FMM=F I1Cent=   0 AccDes= 0.00D+00.
 FoFJK:  IHMeth= 1 ICntrl=    3507 DoSepK=F KAlg= 0 I1Cent=           0 FoldK=F
 IRaf=         0 NMat=       1 IRICut=       1 DoRegI=T DoRafI=F ISym2E= 0 IDoP0=0 IntGTp=1.
 FoFCou: FMM=F IPFlag=           0 FMFlag=      100000 FMFlg1=           0
         NFxFlg=           0 DoJE=F BraDBF=F KetDBF=F FulRan=T
         wScrn=  0.000000 ICntrl=      3507 IOpCl=  0 I1Cent=           0 NGrid=           0
         NMat0=    1 NMatS0=      1 NMatT0=    0 NMatD0=    4 NMtDS0=    3 NMtDT0=    0
 Symmetry not used in FoFCou.
 End of G2Drv F.D. properties file   721 does not exist.
 End of G2Drv F.D. properties file   722 does not exist.
 End of G2Drv F.D. properties file   788 does not exist.
 Leave Link 1110 at Wed Feb  1 13:53:32 2023, MaxMem= 14763950080 cpu:           16552.9 elap:            8299.1
 (Enter /software/commercial/gaussian/g16/AVX2/g16/l1002.exe)
 Minotr:  UHF open shell wavefunction.
          IDoAtm=1111111111111111111111111111111111
          Direct CPHF calculation.
          Differentiating once with respect to electric field.
                with respect to dipole field.
          Differentiating once with respect to nuclear coordinates.
          Requested convergence is 1.0D-08 RMS, and 1.0D-07 maximum.
          Secondary convergence is 1.0D-12 RMS, and 1.0D-12 maximum.
          NewPWx=T KeepS1=F KeepF1=F KeepIn=T MapXYZ=F SortEE=F KeepMc=T.
        10455 words used for storage of precomputed grid.
 Two-electron integral symmetry not used.
          MDV=   14763950080 using IRadAn=       1.
          Solving linear equations simultaneously, MaxMat=     384.
 FoF2E skips out because all densities are zero.
 CalDSu exits because no D1Ps are significant.
 FoFJK:  IHMeth= 1 ICntrl=     500 DoSepK=F KAlg= 0 I1Cent=           0 FoldK=F
 IRaf= 770000000 NMat=     102 IRICut=       1 DoRegI=T DoRafI=F ISym2E= 0 IDoP0=3 IntGTp=3.
 FoFCou: FMM=F IPFlag=           0 FMFlag=      100000 FMFlg1=           0
         NFxFlg=           0 DoJE=F BraDBF=F KetDBF=F FulRan=T
         wScrn=  0.000000 ICntrl=       500 IOpCl=  0 I1Cent=           0 NGrid=           0
         NMat0=  102 NMatS0=    102 NMatT0=    0 NMatD0=  102 NMtDS0=    0 NMtDT0=    0
 Symmetry not used in FoFCou.
          There are   105 degrees of freedom in the 1st order CPHF.  IDoFFX=5 NUNeed=   105.
 Will reuse    3 saved solutions.
     99 vectors produced by pass  0 Test12= 1.97D-13 1.00D-09 XBig12= 5.95D-01 2.41D-01.
 AX will form    99 AO Fock derivatives at one time.
     99 vectors produced by pass  1 Test12= 1.97D-13 1.00D-09 XBig12= 2.45D-01 6.56D-02.
     99 vectors produced by pass  2 Test12= 1.97D-13 1.00D-09 XBig12= 2.04D-03 6.69D-03.
     99 vectors produced by pass  3 Test12= 1.97D-13 1.00D-09 XBig12= 7.62D-05 9.25D-04.
     99 vectors produced by pass  4 Test12= 1.97D-13 1.00D-09 XBig12= 1.60D-06 1.35D-04.
     99 vectors produced by pass  5 Test12= 1.97D-13 1.00D-09 XBig12= 2.11D-08 1.16D-05.
     99 vectors produced by pass  6 Test12= 1.97D-13 1.00D-09 XBig12= 2.05D-10 1.46D-06.
     94 vectors produced by pass  7 Test12= 1.97D-13 1.00D-09 XBig12= 1.78D-12 9.67D-08.
     32 vectors produced by pass  8 Test12= 1.97D-13 1.00D-09 XBig12= 1.53D-14 5.75D-09.
 InvSVY:  IOpt=1 It=  1 EMax= 9.99D-16
 Solved reduced A of dimension   819 with   105 vectors.
 FullF1:  Do perturbations      1 to       3.
 Isotropic polarizability for W=    0.000000      228.88 Bohr**3.
 FullF1:  Do perturbations      1 to       6.
 End of Minotr F.D. properties file   721 does not exist.
 End of Minotr F.D. properties file   722 does not exist.
 End of Minotr F.D. properties file   788 does not exist.
 Leave Link 1002 at Wed Feb  1 19:16:04 2023, MaxMem= 14763950080 cpu:           38450.7 elap:           19352.2
 (Enter /software/commercial/gaussian/g16/AVX2/g16/l601.exe)
 Copying SCF densities to generalized density rwf, IOpCl= 1 IROHF=0.

 **********************************************************************

            Population analysis using the SCF Density.

 **********************************************************************

 Alpha  occ. eigenvalues -- -255.66153-255.65374-255.63029 -30.11235 -30.10410
 Alpha  occ. eigenvalues --  -30.07043 -25.88314 -25.88238 -25.88179 -25.87536
 Alpha  occ. eigenvalues --  -25.87445 -25.87358 -25.84553 -25.84504 -25.84111
 Alpha  occ. eigenvalues --  -19.03887 -18.99833 -18.99681 -18.99614 -18.99609
 Alpha  occ. eigenvalues --  -18.99248 -18.98956 -18.98927 -18.98898 -18.98654
 Alpha  occ. eigenvalues --  -18.98392 -18.98016 -18.97873 -18.97791 -18.97222
 Alpha  occ. eigenvalues --  -14.24614 -14.24471 -10.19585 -10.19524 -10.18542
 Alpha  occ. eigenvalues --  -10.18294 -10.18164 -10.18081  -3.68079  -3.67203
 Alpha  occ. eigenvalues --   -3.60895  -2.42167  -2.42028  -2.41899  -2.41372
 Alpha  occ. eigenvalues --   -2.41185  -2.40992  -2.36014  -2.35807  -2.33539
 Alpha  occ. eigenvalues --   -1.08516  -1.07975  -1.07384  -1.07144  -1.06798
 Alpha  occ. eigenvalues --   -1.06663  -1.05989  -1.05542  -1.00606  -1.00217
 Alpha  occ. eigenvalues --   -0.99704  -0.99398  -0.99107  -0.98984  -0.94827
 Alpha  occ. eigenvalues --   -0.89340  -0.60835  -0.59836  -0.59245  -0.58961
 Alpha  occ. eigenvalues --   -0.58697  -0.58440  -0.56160  -0.50954  -0.50365
 Alpha  occ. eigenvalues --   -0.50259  -0.49791  -0.49408  -0.49110  -0.48971
 Alpha  occ. eigenvalues --   -0.48556  -0.48259  -0.48139  -0.47324  -0.47016
 Alpha  occ. eigenvalues --   -0.46976  -0.46841  -0.45648  -0.44687  -0.44070
 Alpha  occ. eigenvalues --   -0.43438  -0.43158  -0.42543  -0.42040  -0.41443
 Alpha  occ. eigenvalues --   -0.41341  -0.41312  -0.40930  -0.40438  -0.40344
 Alpha  occ. eigenvalues --   -0.39744  -0.39558  -0.39170  -0.38837  -0.38366
 Alpha  occ. eigenvalues --   -0.38266  -0.38166  -0.37719  -0.36212  -0.36006
 Alpha  occ. eigenvalues --   -0.35658  -0.34153  -0.33647  -0.33037  -0.31645
 Alpha  occ. eigenvalues --   -0.31096  -0.30682  -0.30421  -0.30088  -0.29886
 Alpha  occ. eigenvalues --   -0.29669  -0.29446  -0.29166  -0.28950  -0.28651
 Alpha  occ. eigenvalues --   -0.28354  -0.27789  -0.26325  -0.26218  -0.25891
 Alpha  occ. eigenvalues --   -0.24418  -0.24083  -0.23630  -0.23431  -0.22990
 Alpha virt. eigenvalues --   -0.15155  -0.05194  -0.04281  -0.03564  -0.03415
 Alpha virt. eigenvalues --   -0.03405  -0.03221  -0.02998  -0.02680   0.00384
 Alpha virt. eigenvalues --    0.02895   0.06345   0.06675   0.06897   0.08032
 Alpha virt. eigenvalues --    0.08141   0.08297   0.08696   0.09063   0.10433
 Alpha virt. eigenvalues --    0.11042   0.12181   0.13805   0.14313   0.15217
 Alpha virt. eigenvalues --    0.16294   0.16569   0.17241   0.17544   0.18401
 Alpha virt. eigenvalues --    0.19739   0.20969   0.21110   0.21895   0.22133
 Alpha virt. eigenvalues --    0.22795   0.23000   0.23531   0.24312   0.24613
 Alpha virt. eigenvalues --    0.24763   0.25778   0.26264   0.27028   0.27159
 Alpha virt. eigenvalues --    0.27670   0.28075   0.28466   0.29280   0.29564
 Alpha virt. eigenvalues --    0.30073   0.30340   0.31052   0.31297   0.31477
 Alpha virt. eigenvalues --    0.32367   0.32642   0.32862   0.33127   0.33833
 Alpha virt. eigenvalues --    0.34423   0.34681   0.35123   0.35776   0.36205
 Alpha virt. eigenvalues --    0.36738   0.37025   0.37335   0.38163   0.38420
 Alpha virt. eigenvalues --    0.38584   0.39162   0.39389   0.39951   0.40097
 Alpha virt. eigenvalues --    0.40496   0.40913   0.41105   0.42291   0.42392
 Alpha virt. eigenvalues --    0.42609   0.43342   0.43520   0.44228   0.44523
 Alpha virt. eigenvalues --    0.44971   0.45359   0.45931   0.46818   0.46845
 Alpha virt. eigenvalues --    0.47667   0.48716   0.48880   0.49095   0.50219
 Alpha virt. eigenvalues --    0.51117   0.51399   0.51974   0.52856   0.53250
 Alpha virt. eigenvalues --    0.53401   0.53909   0.54609   0.54845   0.55336
 Alpha virt. eigenvalues --    0.56393   0.56869   0.57419   0.58027   0.59069
 Alpha virt. eigenvalues --    0.59359   0.60162   0.61166   0.61924   0.63005
 Alpha virt. eigenvalues --    0.63606   0.64411   0.65210   0.66616   0.66915
 Alpha virt. eigenvalues --    0.67173   0.67545   0.67685   0.69122   0.69644
 Alpha virt. eigenvalues --    0.69898   0.70204   0.70528   0.71102   0.71794
 Alpha virt. eigenvalues --    0.72111   0.72543   0.72907   0.73216   0.73639
 Alpha virt. eigenvalues --    0.74358   0.74734   0.75013   0.75756   0.76472
 Alpha virt. eigenvalues --    0.76905   0.77080   0.77937   0.78857   0.80119
 Alpha virt. eigenvalues --    0.80144   0.80699   0.81960   0.82192   0.82732
 Alpha virt. eigenvalues --    0.83337   0.84044   0.85776   0.86917   0.87132
 Alpha virt. eigenvalues --    0.88124   0.88421   0.89803   0.90175   0.91056
 Alpha virt. eigenvalues --    0.91256   0.91482   0.92506   0.92795   0.93213
 Alpha virt. eigenvalues --    0.94465   0.94560   0.95855   0.96364   0.97411
 Alpha virt. eigenvalues --    0.97596   0.98956   0.99559   0.99902   1.00507
 Alpha virt. eigenvalues --    1.01274   1.02640   1.03499   1.03641   1.04501
 Alpha virt. eigenvalues --    1.04737   1.05395   1.06994   1.07026   1.07809
 Alpha virt. eigenvalues --    1.08915   1.09358   1.09642   1.10460   1.11605
 Alpha virt. eigenvalues --    1.12675   1.13669   1.14020   1.15551   1.19132
 Alpha virt. eigenvalues --    1.19332   1.19530   1.20422   1.21557   1.22773
 Alpha virt. eigenvalues --    1.24192   1.24787   1.25028   1.25997   1.26080
 Alpha virt. eigenvalues --    1.27399   1.27573   1.30546   1.31377   1.32328
 Alpha virt. eigenvalues --    1.33055   1.34433   1.36876   1.37962   1.38983
 Alpha virt. eigenvalues --    1.40076   1.41591   1.42519   1.42598   1.43713
 Alpha virt. eigenvalues --    1.44252   1.44867   1.45693   1.46732   1.47683
 Alpha virt. eigenvalues --    1.48117   1.48732   1.49887   1.50577   1.51379
 Alpha virt. eigenvalues --    1.51756   1.52024   1.53260   1.54380   1.55334
 Alpha virt. eigenvalues --    1.56243   1.56550   1.57529   1.58292   1.58554
 Alpha virt. eigenvalues --    1.59191   1.60001   1.61032   1.62014   1.62783
 Alpha virt. eigenvalues --    1.63441   1.64886   1.66982   1.67530   1.67808
 Alpha virt. eigenvalues --    1.69008   1.69826   1.71063   1.71765   1.72059
 Alpha virt. eigenvalues --    1.73058   1.73712   1.74136   1.74723   1.75587
 Alpha virt. eigenvalues --    1.77028   1.77635   1.77951   1.78880   1.79658
 Alpha virt. eigenvalues --    1.80817   1.82115   1.83563   1.85374   1.85789
 Alpha virt. eigenvalues --    1.86020   1.86797   1.87579   1.88722   1.88788
 Alpha virt. eigenvalues --    1.90665   1.91261   1.91809   1.92403   1.93320
 Alpha virt. eigenvalues --    1.93671   1.93935   1.96299   1.96621   1.97528
 Alpha virt. eigenvalues --    1.98045   1.98908   1.99913   2.00694   2.01502
 Alpha virt. eigenvalues --    2.02012   2.02774   2.03422   2.04218   2.05531
 Alpha virt. eigenvalues --    2.05884   2.06234   2.07350   2.07631   2.08229
 Alpha virt. eigenvalues --    2.08758   2.09957   2.10725   2.11640   2.12059
 Alpha virt. eigenvalues --    2.12691   2.12996   2.13879   2.14198   2.14767
 Alpha virt. eigenvalues --    2.15567   2.16737   2.17128   2.17900   2.18809
 Alpha virt. eigenvalues --    2.19246   2.19729   2.20317   2.21120   2.22013
 Alpha virt. eigenvalues --    2.22777   2.23288   2.24219   2.24879   2.25713
 Alpha virt. eigenvalues --    2.26096   2.26258   2.27727   2.28313   2.30394
 Alpha virt. eigenvalues --    2.30974   2.32503   2.32875   2.33329   2.35409
 Alpha virt. eigenvalues --    2.37064   2.37320   2.39679   2.40225   2.42584
 Alpha virt. eigenvalues --    2.43798   2.45306   2.46191   2.46732   2.47360
 Alpha virt. eigenvalues --    2.49279   2.53161   2.54210   2.55942   2.56990
 Alpha virt. eigenvalues --    2.57284   2.58007   2.60688   2.62534   2.63544
 Alpha virt. eigenvalues --    2.64299   2.65832   2.66144   2.66772   2.67960
 Alpha virt. eigenvalues --    2.68384   2.69322   2.69793   2.70866   2.72119
 Alpha virt. eigenvalues --    2.73489   2.73689   2.75791   2.79508   2.80653
 Alpha virt. eigenvalues --    2.81482   2.82264   2.83621   2.84165   2.85211
 Alpha virt. eigenvalues --    2.87208   2.88115   2.89931   2.91687   2.92519
 Alpha virt. eigenvalues --    2.93297   2.94504   2.95190   2.95681   2.96421
 Alpha virt. eigenvalues --    2.96865   2.97276   2.98779   2.99837   3.01762
 Alpha virt. eigenvalues --    3.02555   3.02965   3.03348   3.03601   3.04160
 Alpha virt. eigenvalues --    3.04878   3.05850   3.06986   3.07851   3.08561
 Alpha virt. eigenvalues --    3.09182   3.09501   3.10745   3.11852   3.12073
 Alpha virt. eigenvalues --    3.12627   3.13529   3.13588   3.14232   3.14897
 Alpha virt. eigenvalues --    3.15269   3.15745   3.16025   3.16670   3.16924
 Alpha virt. eigenvalues --    3.17751   3.18411   3.19113   3.20349   3.21359
 Alpha virt. eigenvalues --    3.22198   3.22271   3.24354   3.24587   3.24823
 Alpha virt. eigenvalues --    3.25700   3.26704   3.27080   3.27673   3.28851
 Alpha virt. eigenvalues --    3.29839   3.31617   3.32401   3.34416   3.35273
 Alpha virt. eigenvalues --    3.36966   3.38217   3.40602   3.41721   3.42376
 Alpha virt. eigenvalues --    3.43677   3.44461   3.44667   3.45197   3.45854
 Alpha virt. eigenvalues --    3.46715   3.47183   3.48050   3.48505   3.48897
 Alpha virt. eigenvalues --    3.49112   3.49961   3.50217   3.50888   3.52274
 Alpha virt. eigenvalues --    3.53187   3.54437   3.55665   3.56152   3.57232
 Alpha virt. eigenvalues --    3.58046   3.59046   3.59497   3.60833   3.61754
 Alpha virt. eigenvalues --    3.61981   3.62408   3.63430   3.64390   3.64890
 Alpha virt. eigenvalues --    3.66821   3.67428   3.67870   3.69521   3.70357
 Alpha virt. eigenvalues --    3.71123   3.71749   3.72747   3.73255   3.74173
 Alpha virt. eigenvalues --    3.74885   3.75348   3.77216   3.79794   3.80709
 Alpha virt. eigenvalues --    3.81613   3.81793   3.82131   3.82742   3.85262
 Alpha virt. eigenvalues --    3.87531   3.89497   3.90318   3.90519   3.91190
 Alpha virt. eigenvalues --    3.91512   3.92115   3.93328   3.94385   3.94877
 Alpha virt. eigenvalues --    3.95305   3.96375   3.98063   3.99155   4.00376
 Alpha virt. eigenvalues --    4.01411   4.01959   4.03544   4.04564   4.05598
 Alpha virt. eigenvalues --    4.07200   4.07757   4.11083   4.11847   4.13946
 Alpha virt. eigenvalues --    4.15809   4.16883   4.17214   4.18494   4.19949
 Alpha virt. eigenvalues --    4.20559   4.22221   4.22903   4.23194   4.23553
 Alpha virt. eigenvalues --    4.24562   4.25263   4.25480   4.26678   4.28380
 Alpha virt. eigenvalues --    4.43508   4.44711   4.45615   4.46784   4.47750
 Alpha virt. eigenvalues --    4.48779   4.49560   4.50577   4.50945   4.52473
 Alpha virt. eigenvalues --    4.53416   4.54929   4.55703   4.56849   4.59551
 Alpha virt. eigenvalues --    4.59821   4.61515   4.63591   4.66691   5.09058
 Alpha virt. eigenvalues --    5.09099   5.11778   5.15338   5.16932   5.17849
 Alpha virt. eigenvalues --    5.22268   5.22815   5.22903   5.23160   5.23514
 Alpha virt. eigenvalues --    5.23708   5.24073   5.24213   5.24588   5.24783
 Alpha virt. eigenvalues --    5.24930   5.25172   5.25373   5.25867   5.26090
 Alpha virt. eigenvalues --    5.26596   5.26721   5.26971   5.27937   5.28148
 Alpha virt. eigenvalues --    5.28344   5.29082   5.29734   5.30168   5.30610
 Alpha virt. eigenvalues --    5.31587   5.31770   5.31820   5.32233   5.32307
 Alpha virt. eigenvalues --    5.33421   5.34888   5.35497   5.36548   5.38117
 Alpha virt. eigenvalues --    5.39388   5.39793   5.40274   5.41983   5.43233
 Alpha virt. eigenvalues --    5.44154   5.44616   5.47227   5.49175   5.50121
 Alpha virt. eigenvalues --    5.50592   5.53533   5.57262   5.57798   5.58105
 Alpha virt. eigenvalues --    5.58184   5.58682   5.59837   5.61070   5.62028
 Alpha virt. eigenvalues --    5.62678   5.63176   5.63780   5.65607   5.67823
 Alpha virt. eigenvalues --    5.68340   5.68667   5.68923   5.69008   5.69436
 Alpha virt. eigenvalues --    5.87342   5.87752   5.89054   5.92624   5.93053
 Alpha virt. eigenvalues --    5.94121   5.95067   6.04754   6.04960   6.05765
 Alpha virt. eigenvalues --    6.06581   6.08231   6.09018   6.10666   6.15002
 Alpha virt. eigenvalues --    6.15490   6.15927   6.16208   6.16780   6.17516
 Alpha virt. eigenvalues --    6.17949   6.20300   6.20683   6.22105   6.22332
 Alpha virt. eigenvalues --    6.26608   6.32431   6.34351   6.37314   6.41256
 Alpha virt. eigenvalues --    6.41720   6.42046   6.42275   6.43126   6.43983
 Alpha virt. eigenvalues --    6.46257   6.46864   6.47530   6.48002   6.49068
 Alpha virt. eigenvalues --    6.49251   6.49419   6.49728   6.50620   6.51403
 Alpha virt. eigenvalues --    6.53202   6.53986   6.54528   6.55503   6.56637
 Alpha virt. eigenvalues --    6.57583   6.59162   6.59704   6.60944   6.61853
 Alpha virt. eigenvalues --    6.62516   6.63091   6.64309   6.65267   6.66125
 Alpha virt. eigenvalues --    6.67130   6.67459   6.68964   6.69483   6.71816
 Alpha virt. eigenvalues --    6.71920   6.73137   6.73851   6.74923   6.78564
 Alpha virt. eigenvalues --    6.80136   6.83102   6.84023   6.85357   6.86473
 Alpha virt. eigenvalues --    6.86759   6.87861   6.88748   6.88956   6.90053
 Alpha virt. eigenvalues --    6.90307   6.91520   6.93595   6.94843   6.96205
 Alpha virt. eigenvalues --    6.97643   6.98399   6.99192   7.00084   7.02808
 Alpha virt. eigenvalues --    7.03333   7.05439   7.05945   7.06598   7.08686
 Alpha virt. eigenvalues --    7.08813   7.10969   7.12001   7.13475   7.21977
 Alpha virt. eigenvalues --    7.22341   7.22811   7.23086   7.24564   7.25198
 Alpha virt. eigenvalues --    7.25909   7.26476   7.26823   7.27575   7.27769
 Alpha virt. eigenvalues --    7.28854   7.29944   7.32272   7.32484   7.35437
 Alpha virt. eigenvalues --    7.36496   7.39330   7.46682  23.20334  23.21089
 Alpha virt. eigenvalues --   23.22485  23.23116  23.23845  23.26788  31.50093
 Alpha virt. eigenvalues --   32.25199  43.66814  43.73541  43.80894  43.87373
 Alpha virt. eigenvalues --   43.92221  43.93684  43.96139  44.08702  44.11826
 Alpha virt. eigenvalues --   44.14732  44.16314  44.17700  44.20047  44.29369
 Alpha virt. eigenvalues --   44.30125
  Beta  occ. eigenvalues -- -255.65980-255.65190-255.62914 -29.99472 -29.98867
  Beta  occ. eigenvalues --  -29.97891 -25.79675 -25.79633 -25.79606 -25.79084
  Beta  occ. eigenvalues --  -25.78978 -25.78912 -25.78625 -25.77357 -25.77132
  Beta  occ. eigenvalues --  -19.03713 -18.99527 -18.99396 -18.99345 -18.99319
  Beta  occ. eigenvalues --  -18.98820 -18.98543 -18.98534 -18.98515 -18.98442
  Beta  occ. eigenvalues --  -18.98190 -18.97640 -18.97567 -18.96486 -18.95571
  Beta  occ. eigenvalues --  -14.24613 -14.24470 -10.19585 -10.19527 -10.18543
  Beta  occ. eigenvalues --  -10.18296 -10.18166 -10.18081  -3.42917  -3.42549
  Beta  occ. eigenvalues --   -3.42363  -2.19089  -2.17355  -2.17319  -2.17284
  Beta  occ. eigenvalues --   -2.17252  -2.16804  -2.16790  -2.15741  -2.15295
  Beta  occ. eigenvalues --   -1.07930  -1.07385  -1.06718  -1.06519  -1.06120
  Beta  occ. eigenvalues --   -1.06012  -1.05624  -1.05538  -0.99906  -0.99514
  Beta  occ. eigenvalues --   -0.98902  -0.98658  -0.98303  -0.98209  -0.90628
  Beta  occ. eigenvalues --   -0.84904  -0.60139  -0.59108  -0.58609  -0.58341
  Beta  occ. eigenvalues --   -0.57851  -0.57623  -0.55858  -0.50252  -0.49783
  Beta  occ. eigenvalues --   -0.48914  -0.48304  -0.48003  -0.47742  -0.47274
  Beta  occ. eigenvalues --   -0.47047  -0.46907  -0.46624  -0.46491  -0.46165
  Beta  occ. eigenvalues --   -0.46016  -0.44183  -0.43362  -0.42579  -0.42485
  Beta  occ. eigenvalues --   -0.42148  -0.41440  -0.41198  -0.41061  -0.40587
  Beta  occ. eigenvalues --   -0.37859  -0.37712  -0.36208  -0.35572  -0.32829
  Beta  occ. eigenvalues --   -0.32693  -0.31977  -0.31805  -0.31636  -0.31362
  Beta  occ. eigenvalues --   -0.30802  -0.30383  -0.30238  -0.30014  -0.29511
  Beta  occ. eigenvalues --   -0.29246  -0.29116  -0.28685  -0.28410  -0.28367
  Beta  occ. eigenvalues --   -0.28321  -0.27996  -0.27365  -0.26372  -0.25648
  Beta  occ. eigenvalues --   -0.25300
  Beta virt. eigenvalues --   -0.18541  -0.18432  -0.17951  -0.17348  -0.17067
  Beta virt. eigenvalues --   -0.15540  -0.15401  -0.13241  -0.12531  -0.12353
  Beta virt. eigenvalues --   -0.11766  -0.11292  -0.10815  -0.10105  -0.06719
  Beta virt. eigenvalues --   -0.04437  -0.03985  -0.03410  -0.03331  -0.02735
  Beta virt. eigenvalues --   -0.02600  -0.02546  -0.02232   0.00604   0.03837
  Beta virt. eigenvalues --    0.06645   0.06764   0.07443   0.08209   0.08299
  Beta virt. eigenvalues --    0.08420   0.08734   0.09122   0.10962   0.11121
  Beta virt. eigenvalues --    0.12613   0.14550   0.15615   0.16466   0.16841
  Beta virt. eigenvalues --    0.17421   0.17801   0.18273   0.19069   0.20440
  Beta virt. eigenvalues --    0.21130   0.21917   0.22113   0.22217   0.23295
  Beta virt. eigenvalues --    0.23579   0.23961   0.24643   0.25075   0.25499
  Beta virt. eigenvalues --    0.26480   0.26916   0.27403   0.27547   0.28260
  Beta virt. eigenvalues --    0.28567   0.29027   0.29867   0.30063   0.30803
  Beta virt. eigenvalues --    0.31140   0.31614   0.31894   0.32132   0.32811
  Beta virt. eigenvalues --    0.33164   0.33501   0.33546   0.33929   0.34618
  Beta virt. eigenvalues --    0.34985   0.35635   0.36484   0.36869   0.37001
  Beta virt. eigenvalues --    0.37238   0.37548   0.38399   0.38701   0.38856
  Beta virt. eigenvalues --    0.39468   0.39956   0.40188   0.40762   0.40872
  Beta virt. eigenvalues --    0.41096   0.41644   0.42436   0.42620   0.42948
  Beta virt. eigenvalues --    0.43728   0.44166   0.44490   0.44848   0.45287
  Beta virt. eigenvalues --    0.45644   0.46633   0.47090   0.47884   0.48012
  Beta virt. eigenvalues --    0.49115   0.49230   0.49786   0.50979   0.51281
  Beta virt. eigenvalues --    0.51825   0.52539   0.53051   0.53658   0.54089
  Beta virt. eigenvalues --    0.54526   0.54877   0.55225   0.56014   0.56947
  Beta virt. eigenvalues --    0.57160   0.57794   0.58528   0.59473   0.59833
  Beta virt. eigenvalues --    0.60447   0.61590   0.62664   0.63674   0.64172
  Beta virt. eigenvalues --    0.65143   0.65610   0.67017   0.67186   0.67733
  Beta virt. eigenvalues --    0.68069   0.68288   0.69621   0.70191   0.70389
  Beta virt. eigenvalues --    0.70809   0.71146   0.71764   0.72268   0.72599
  Beta virt. eigenvalues --    0.73138   0.73565   0.73718   0.74590   0.74903
  Beta virt. eigenvalues --    0.75181   0.75440   0.76343   0.76860   0.77279
  Beta virt. eigenvalues --    0.77800   0.78529   0.79947   0.80477   0.80818
  Beta virt. eigenvalues --    0.81371   0.82602   0.83234   0.83604   0.84463
  Beta virt. eigenvalues --    0.85081   0.86448   0.87629   0.88306   0.89233
  Beta virt. eigenvalues --    0.89679   0.90839   0.90915   0.91724   0.92133
  Beta virt. eigenvalues --    0.92628   0.93581   0.93993   0.94421   0.95799
  Beta virt. eigenvalues --    0.95874   0.96985   0.97444   0.98043   0.98494
  Beta virt. eigenvalues --    0.99807   1.00692   1.01370   1.01668   1.02464
  Beta virt. eigenvalues --    1.03961   1.04749   1.05104   1.05393   1.06156
  Beta virt. eigenvalues --    1.06972   1.08162   1.08667   1.08970   1.09841
  Beta virt. eigenvalues --    1.10332   1.11152   1.12108   1.13123   1.14248
  Beta virt. eigenvalues --    1.14810   1.15913   1.16276   1.19959   1.20440
  Beta virt. eigenvalues --    1.20989   1.21729   1.22345   1.23643   1.24735
  Beta virt. eigenvalues --    1.25380   1.25620   1.26608   1.27362   1.28614
  Beta virt. eigenvalues --    1.28905   1.30861   1.32109   1.32729   1.33762
  Beta virt. eigenvalues --    1.35255   1.37703   1.38653   1.40194   1.40735
  Beta virt. eigenvalues --    1.42508   1.42983   1.43165   1.44475   1.45262
  Beta virt. eigenvalues --    1.45805   1.46215   1.47533   1.48432   1.49099
  Beta virt. eigenvalues --    1.49763   1.50710   1.51176   1.52202   1.52712
  Beta virt. eigenvalues --    1.52964   1.54388   1.55398   1.56105   1.57113
  Beta virt. eigenvalues --    1.57328   1.58239   1.59244   1.59341   1.59817
  Beta virt. eigenvalues --    1.60856   1.61641   1.62810   1.63644   1.64035
[...]
 0001960,-0.00002909,-0.00004732,-0.00000017,0.00001634,0.00000450,0.00
 000077,-0.00000051,-0.00024894,-0.00027024,0.00041449,0.00019120,-0.00
 023642,-0.00021521,0.00021343,-0.00001808,0.00033984,0.00017278,0.0000
 7955,-0.00020159,-0.00031404,-0.00016785,-0.00034865,0.00003016,-0.000
 03920,0.00003700,-0.00000601,0.00009192,-0.00005784,-0.00031752,-0.000
 05099,0.00014737,0.00001561,-0.00003335,-0.00005351,0.00052850,0.00056
 711,0.00010693,-0.00007556,0.00007823,-0.00012418,0.52664963,0.6858480
 0,-0.00003111,-0.00003009,-0.00001359,-0.00003474,0.00000630,0.0000189
 5,0.00005854,0.00001661,-0.00000524,-0.00000437,-0.00000049,0.00000099
 ,0.00004055,-0.00002436,0.00001561,0.00000308,-0.00002854,-0.00000649,
 -0.00002852,0.00003982,-0.00000420,0.00000323,-0.00000219,0.00000091,-
 0.00002643,-0.00024947,-0.00002814,0.00000997,-0.00003536,0.00001123,0
 .00005059,-0.00002265,-0.00002106,-0.00004079,0.00004701,0.00000849,0.
 00000304,-0.00000202,-0.00000215,-0.00002705,0.00000540,-0.00001580,-0
 .00002406,-0.00001949,0.00002184,0.00004949,-0.00000061,-0.00001402,-0
 .00000478,0.00000139,0.00000056,0.00033150,0.00023103,0.00001023,-0.00
 017957,-0.00004234,0.00015338,-0.00021457,0.00010434,-0.00005258,0.000
 00058,-0.00007264,0.00004692,0.00003359,-0.00030723,-0.00021741,-0.000
 00740,0.00006283,0.00000014,0.00000492,-0.00011229,0.00000643,-0.00000
 698,0.00000162,-0.00019666,0.00003529,0.00001417,-0.00001516,0.0000596
 3,0.00056531,0.00033501,0.00004469,0.00002112,0.00003634,-0.43597286,-
 0.56643272,0.46833862,-0.00002905,0.00000166,0.00000268,-0.00006244,0.
 00005551,0.00003587,0.00006488,-0.00001201,-0.00002863,-0.00000500,0.0
 0000303,0.00000880,-0.00004526,0.00000391,-0.00002534,-0.00001943,0.00
 000218,-0.00001187,0.00003006,-0.00001659,0.00001405,-0.00000568,-0.00
 000029,-0.00000393,-0.00150691,0.00042833,0.00013799,-0.00001981,0.000
 00491,0.00000571,-0.00005198,-0.00000206,0.00002584,0.00003849,-0.0000
 1803,-0.00002028,-0.00000420,0.00000073,0.00000594,-0.00001927,0.00002
 812,-0.00005326,0.00000438,0.00002676,-0.00003113,0.00000752,-0.000017
 30,0.00002875,-0.00000970,0.00000551,-0.00000747,0.00026393,-0.0002440
 1,0.00026243,-0.00130232,0.00065574,-0.00029073,0.00022235,0.00002493,
 0.00007542,-0.00001861,-0.00003108,0.00002624,0.00001034,0.00002820,0.
 00011069,0.00006924,-0.00003471,0.00001765,-0.00003904,0.00005128,-0.0
 0002594,0.00012916,-0.00004358,0.00006158,0.00002068,-0.00000164,0.000
 02073,-0.00035259,0.00029158,-0.00020021,-0.00003493,-0.00002274,-0.00
 001326,-0.40622939,-0.52705216,0.43596120,0.40949261,-0.00000065,-0.00
 001037,0.00000383,0.00002064,-0.00003746,0.00001620,-0.00000297,0.0000
 1618,0.00000591,-0.00000277,0.00000249,-0.00000260,0.00003244,-0.00001
 284,0.00002477,0.00000275,-0.00001335,0.00000178,-0.00001406,0.0000243
 5,-0.00000189,0.00000495,-0.00000270,0.00000098,0.00133585,-0.00000264
 ,-0.00020883,0.00000907,-0.00002758,0.00001603,0.00004920,-0.00000965,
 -0.00000210,-0.00003998,0.00003621,0.00000713,0.00000084,-0.00000275,-
 0.00000208,-0.00005313,0.00003064,-0.00001651,-0.00003833,-0.00002508,
 0.00003813,0.00008002,0.00000038,-0.00002447,-0.00000892,0.00000098,0.
 00000008,0.00047935,0.00047803,-0.00049633,-0.00005828,0.00007645,0.00
 020212,-0.00020881,0.00002291,-0.00027291,-0.00010503,-0.00005428,0.00
 012316,0.00029822,0.00029084,0.00043622,-0.00001592,0.00004371,-0.0000
 3939,-0.00004234,-0.00013745,0.00006537,0.00024062,-0.00002127,-0.0000
 8036,0.00002532,0.00000435,0.00002550,-0.00079949,-0.00110663,0.000069
 29,-0.00000678,-0.00011600,0.00013106,-0.52684577,-0.68552454,0.566385
 49,0.52541563,0.68687744,0.00003649,0.00002971,0.00001340,0.00004876,-
 0.00002019,-0.00003178,-0.00007005,-0.00001368,0.00001027,0.00000570,0
 .00000005,-0.00000279,-0.00003495,0.00002745,-0.00000990,0.00000031,0.
 00003295,0.00001028,0.00002651,-0.00004237,0.00000199,-0.00000215,0.00
 000250,-0.00000010,0.00062261,-0.00011282,0.00007910,-0.00000707,0.000
 03615,-0.00001287,-0.00004590,0.00002606,0.00002215,0.00003631,-0.0000
 4616,-0.00000603,-0.00000307,0.00000226,0.00000139,0.00004433,-0.00000
 877,0.00001952,0.00003212,0.00001936,-0.00002302,-0.00006777,0.0000044
 3,0.00001643,0.00000675,-0.00000331,0.00000003,-0.00033825,-0.00027130
 ,-0.00001941,-0.00080195,0.00026618,-0.00073650,0.00022768,-0.00013302
 ,0.00002938,0.00002416,0.00007408,-0.00004613,-0.00004189,0.00024728,0
 .00031423,-0.00000517,-0.00006293,-0.00000454,0.00001638,0.00012548,0.
 00000037,-0.00003623,0.00007549,0.00030915,0.00001325,-0.00004944,0.00
 001021,0.00022589,-0.00031608,-0.00099695,0.00001938,-0.00005308,0.000
 07932,0.43590309,0.56643799,-0.46827423,-0.43597533,-0.56639891,0.4693
 6080,0.00044849,0.00120405,0.00081530,-0.00372121,0.00100747,0.0032146
 0,-0.00227539,-0.00142408,0.00001313,0.00008975,0.00012786,0.00005380,
 -0.00029183,-0.00079450,-0.00041147,-0.00048796,-0.00045107,-0.0003368
 1,0.00028754,0.00041440,0.00033645,-0.00008199,-0.00005217,-0.00012965
 ,0.00266041,-0.00047374,0.00072666,-0.00054558,-0.00046293,0.00063425,
 -0.00010093,-0.00072744,0.00032274,0.00005961,0.00059664,-0.00045959,-
 0.00004135,-0.00006531,0.00015072,-0.00819751,-0.00052917,-0.00484009,
 -0.00044144,0.00048939,-0.00002843,0.00048662,-0.00059011,-0.00090397,
 -0.00025881,0.00034534,0.00005131,-0.25572322,-0.15621369,0.01461879,0
 .00235385,0.00217597,0.00109057,-0.00294815,0.00466641,0.00054295,0.00
 247862,0.00112771,-0.00156995,0.00154888,0.00082295,0.00145572,0.00294
 616,-0.00235511,-0.00066666,-0.01132355,-0.01083215,0.00121077,-0.0015
 8291,-0.00246006,-0.00034758,-0.00011678,-0.00001913,-0.00013665,0.000
 08583,-0.00130340,0.00049740,-0.00008270,-0.00063758,0.00010201,-0.000
 58127,0.00082549,-0.00009324,-0.00058965,0.00024357,0.00014700,0.27595
 128,0.00253170,0.00166413,0.00091673,0.00512525,0.00111298,-0.00312111
 ,-0.00249834,0.00043346,0.00083554,-0.00013064,-0.00008960,0.00013098,
 -0.00065101,-0.00020139,-0.00035975,-0.00033477,0.00021949,-0.00014508
 ,0.00054642,-0.00032236,0.00022619,-0.00007217,-0.00000927,-0.00008115
 ,-0.00372952,-0.00712044,0.00554651,-0.00049199,0.00021950,0.00031218,
 -0.00051066,-0.00019772,0.00035857,0.00045364,-0.00014808,-0.00030383,
 -0.00004793,-0.00002392,0.00010029,0.00302641,0.00276303,0.00077944,0.
 00136102,0.00076696,-0.00152607,-0.00161592,0.00090725,-0.00017394,-0.
 00052998,0.00001022,-0.00007946,-0.15618581,-0.13363341,0.01267997,-0.
 00181428,-0.00593974,-0.00370397,-0.00000515,0.00271892,0.00031476,0.0
 0024997,-0.00064176,-0.00062074,-0.00016668,-0.00088403,-0.00042514,0.
 00142841,-0.00364885,-0.00027744,-0.01071187,-0.00312447,0.00073592,-0
 .00182160,-0.00089206,0.00055428,0.00020290,0.00004837,-0.00005013,-0.
 00032303,0.00136749,0.00078656,0.00028912,-0.00016155,-0.00011746,0.00
 036020,-0.00020656,-0.00011566,0.00048720,-0.00081848,0.00011614,0.165
 60276,0.14604408,0.00154710,0.00084548,-0.00005325,0.00543212,-0.00116
 839,-0.00280654,-0.00035000,0.00071319,0.00118409,-0.00009844,-0.00011
 872,0.00007063,-0.00000750,0.00010459,0.00012012,0.00010229,0.00008231
 ,0.00018698,0.00004888,-0.00009799,-0.00002139,0.00002236,0.00002058,0
 .00001307,0.00356569,0.00768549,-0.00471157,-0.00001534,0.00009722,0.0
 0005898,-0.00004464,0.00003142,0.00016320,0.00003431,-0.00012924,0.000
 03225,-0.00002042,-0.00000354,0.00000065,-0.00790978,-0.00094279,-0.00
 343392,-0.00183857,-0.00012356,0.00118464,0.00076939,-0.00148723,0.000
 48698,0.00028349,0.00014930,0.00003491,0.01485992,0.01313209,-0.025591
 87,-0.00138505,-0.00601652,-0.00255065,0.00003539,-0.00025262,-0.00149
 770,-0.00174784,-0.00115166,0.00037602,0.00079903,0.00178014,0.0010741
 9,-0.00026383,0.00005956,-0.00127717,0.00112743,0.00065532,0.00322536,
 0.00011542,0.00088055,0.00127957,0.00015762,0.00003092,0.00005681,0.00
 116047,-0.00132530,0.00015109,-0.00026490,-0.00014804,0.00007769,0.000
 01752,-0.00000703,-0.00014048,-0.00011415,-0.00001735,-0.00011326,-0.0
 1602700,-0.01329356,0.03237680,0.00048240,0.00046579,0.00018451,0.0005
 0004,-0.00016948,-0.00025380,-0.00085594,-0.00018060,0.00010366,0.0000
 6063,0.00001437,-0.00000358,-0.00466294,0.00687794,-0.00481430,-0.0006
 9140,0.00284494,0.00101377,0.00332210,-0.00221708,0.00053655,-0.000240
 95,-0.00001650,0.00002605,-0.00007442,-0.00092297,0.00003086,-0.000422
 37,0.00167232,-0.00075801,-0.00161512,0.00480756,0.00433393,0.00296066
 ,-0.00185394,-0.00031733,-0.00017960,-0.00008590,-0.00008307,0.0005641
 8,-0.00022334,0.00012223,0.00061778,0.00033670,-0.00037555,-0.00089494
 ,0.00001548,0.00024877,0.00005073,-0.00000607,-0.00001514,-0.00071762,
 0.00054959,0.00011611,-0.00047917,-0.00108902,-0.00053361,-0.00654748,
 -0.00528082,0.00079092,-0.00182703,-0.00350092,0.00263018,-0.00163677,
 -0.00239307,-0.00176197,-0.00220367,-0.00139259,-0.00009223,0.00107741
 ,-0.00129126,-0.00016125,0.00149523,0.00102842,0.00004971,-0.00013730,
 0.00005170,-0.00003457,0.00051480,0.00084570,0.00047651,-0.00006365,-0
 .00001286,-0.00003926,-0.00000029,0.00000254,0.00001436,-0.00000320,-0
 .00000614,-0.00001550,0.00013977,-0.00000798,-0.00002229,0.39115695,-0
 .00023440,-0.00082882,-0.00055195,-0.00014311,-0.00046159,-0.00025836,
 0.00032211,0.00060116,0.00042968,-0.00003355,-0.00009146,-0.00011472,0
 .00911247,-0.00542591,0.00606851,0.00098417,-0.00142152,-0.00011293,-0
 .00231760,0.00120107,-0.00050203,0.00063169,-0.00015721,0.00027454,-0.
 00042696,-0.00040078,-0.00028403,0.00100739,-0.00101222,0.00006167,0.0
 0724404,-0.00582202,-0.00918707,-0.00270656,0.00135288,-0.00013477,0.0
 0071717,-0.00003940,-0.00023083,-0.00014971,-0.00027128,0.00031969,-0.
 00011979,-0.00085813,0.00075561,0.00041238,0.00045222,-0.00071437,-0.0
 0000747,-0.00005732,0.00013568,0.00176855,0.00115601,-0.00014902,-0.00
 056944,-0.00037101,0.00004957,0.00167570,-0.02590345,0.00021370,-0.004
 83026,-0.00261924,0.00528669,-0.00461841,-0.00170944,-0.00346390,-0.00
 248278,0.00234520,0.00036084,0.00241209,-0.00517384,-0.00029490,0.0016
 8948,0.00109759,0.00001481,-0.00050338,-0.00018908,0.00027181,0.000932
 27,0.00103766,0.00091557,-0.00021420,-0.00023405,-0.00035858,0.0000502
 8,-0.00003045,-0.00000487,-0.00003978,0.00003519,0.00001416,-0.0006270
 8,-0.00042199,0.00002687,0.14056892,0.11945177,-0.00014040,-0.00021018
 ,0.00016246,-0.00014572,-0.00008916,0.00012915,0.00017753,0.00011332,-
 0.00001326,-0.00000915,0.00002291,-0.00002157,-0.00511652,0.00474028,-
 0.00154223,-0.00062061,0.00259495,0.00102714,0.00249356,-0.00200454,0.
 00081952,-0.00007722,0.00005935,-0.00011129,-0.00021613,-0.00168571,0.
 00037161,0.00159724,-0.00365147,0.00195028,0.00730915,-0.00922192,-0.0
 0629318,-0.00482379,0.00307229,0.00029676,0.00029214,-0.00005086,-0.00
 011794,-0.00015359,0.00015470,0.00005452,-0.00021872,-0.00003191,0.000
 33375,0.00031166,-0.00005653,-0.00008922,-0.00003146,-0.00003042,0.000
 00963,0.00033238,-0.00019869,-0.00137550,0.00117890,0.00232891,0.00129
 928,0.00057468,-0.00096919,-0.01141674,0.00419856,0.00574382,-0.003095
 75,-0.00296577,-0.00293181,-0.00120287,0.00019431,0.00051529,-0.002548
 11,-0.00007046,-0.00019301,0.00037087,-0.00299253,-0.00223463,-0.00017
 408,0.00019422,0.00000927,-0.00003665,0.00093807,0.00161064,0.00094668
 ,0.00004216,-0.00004969,-0.00009192,-0.00001480,-0.00002773,0.00000121
 ,0.00000051,0.00002164,0.00000393,-0.00009509,-0.00002400,0.00010616,-
 0.02477485,0.01623749,0.67730511,-0.00020663,-0.00019337,-0.00004703,-
 0.00020594,0.00006389,0.00008180,0.00033894,0.00008060,-0.00002754,-0.
 00001783,-0.00000637,-0.00000161,-0.00084365,-0.00017724,0.00039209,-0
 .00005250,-0.00023863,-0.00007582,-0.00035415,0.00049474,-0.00009082,-
 0.00002152,0.00002278,-0.00005795,-0.00000815,0.00069071,-0.00012892,0
 .00037715,-0.00109098,0.00072909,-0.00081465,-0.00142793,-0.00021747,-
 0.00201180,0.00189932,0.00045677,-0.00009796,0.00001352,0.00004131,-0.
 00014322,0.00004242,-0.00002855,-0.00016911,-0.00009555,0.00013340,0.0
 0024324,-0.00000318,-0.00007189,-0.00001590,-0.00000061,0.00000820,0.0
 0025441,-0.00016964,0.00021215,-0.00010866,-0.00008346,-0.00011562,0.0
 0150021,-0.00246346,0.00077936,-0.00011852,-0.00030470,0.00031237,0.00
 013345,0.00069253,-0.00012627,0.00078276,0.00049316,-0.00041505,-0.000
 63919,0.00047091,0.00007478,0.00035355,0.00018508,0.00009259,-0.000026
 13,-0.00000268,-0.00000129,-0.00027204,-0.00083208,-0.00033116,-0.0000
 2231,-0.00002117,-0.00001477,0.00000721,0.00000378,-0.00000395,-0.0000
 0363,-0.00000064,0.00000248,-0.00005106,-0.00000077,-0.00000966,-0.226
 14524,-0.07971782,0.24035166,0.21698811,0.00037015,0.00054230,0.000152
 12,0.00028062,0.00004822,-0.00009520,-0.00056777,-0.00027698,-0.000059
 48,0.00003814,0.00002360,0.00003907,-0.00013725,0.00054594,-0.00111284
 ,-0.00017924,0.00040267,-0.00019163,0.00094347,-0.00056246,0.00035579,
 -0.00015397,-0.00003071,0.00000236,0.00011882,0.00027502,0.00002333,-0
 .00174206,0.00370970,-0.00153614,-0.00328268,0.00384481,0.00301788,0.0
 0547256,-0.00373228,-0.00132563,-0.00035080,0.00005309,0.00020696,0.00
 023799,-0.00003333,-0.00004623,0.00032378,0.00035422,-0.00043834,-0.00
 048864,-0.00008545,0.00027064,0.00003183,0.00002177,-0.00004672,-0.000
 57444,-0.00010959,0.00032226,-0.00014861,-0.00051957,-0.00034184,-0.00
 772972,-0.00584083,0.00806030,-0.00062828,-0.00134285,0.00052822,0.000
 96805,0.00013940,0.00020241,-0.00087280,-0.00150292,0.00124608,0.00063
 176,-0.00001080,-0.00027519,0.00045345,0.00039027,0.00020121,-0.000043
 56,0.00001161,-0.00003527,-0.00045335,-0.00049769,-0.00050637,0.000014
 69,0.00003197,0.00007060,-0.00001152,0.00001260,0.00000032,0.00001280,
 -0.00001227,-0.00000280,0.00021420,0.00011044,-0.00003105,-0.07604741,
 -0.03707156,0.07368010,0.07718242,0.03950915,0.00013598,0.00007546,-0.
 00012727,0.00011623,-0.00006497,-0.00012252,-0.00019439,-0.00001112,0.
 00007510,0.00000744,-0.00001785,-0.00000542,0.00099032,-0.00170768,0.0
 0065769,0.00030511,-0.00138943,-0.00078359,-0.00136494,0.00167101,0.00
 000829,0.00002937,-0.00002495,0.00002265,-0.00007395,0.00019065,-0.000
 14250,-0.00115851,0.00258284,-0.00112691,-0.00126425,0.00186746,-0.001
 27610,0.00342574,-0.00236468,-0.00121651,0.00013808,0.00002613,0.00012
 717,0.00002608,-0.00005259,-0.00000594,0.00004241,-0.00004748,-0.00009
 681,-0.00005984,0.00005197,-0.00002177,0.00001254,0.00001047,0.0000024
 0,0.00007710,0.00018668,0.00029379,-0.00015822,-0.00042264,-0.00025435
 ,0.00024107,0.00586934,0.00405492,-0.00033296,-0.00055523,0.00035597,-
 0.00007374,0.00016365,-0.00079517,-0.00058974,-0.00011766,0.00140736,0
 .00050502,-0.00094963,-0.00031603,0.00044359,0.00057960,0.00005422,-0.
 00002267,-0.00001049,0.00000343,-0.00002935,-0.00022673,0.00003312,-0.
 00008522,-0.00004260,-0.00005664,0.00000629,0.00000539,0.00000310,-0.0
 0000370,-0.00000461,-0.00000583,-0.00002648,-0.00002887,-0.00002296,0.
 18645291,0.05651137,-0.29061157,-0.21765812,-0.07248799,0.31713804,-0.
 00011982,-0.00013970,-0.00010055,-0.00014935,0.00001894,0.00007068,0.0
 0024378,0.00006265,-0.00002014,-0.00002019,-0.00000693,-0.00000105,-0.
 00008700,-0.00193374,0.00039254,0.00047360,-0.00208016,-0.00076299,-0.
 00242999,0.00229391,-0.00065735,-0.00000271,0.00004425,0.00000641,-0.0
 0011936,-0.00029830,0.00007255,-0.00035299,0.00036330,-0.00031953,-0.0
 0108903,0.00112672,0.00068765,0.00046024,-0.00018985,0.00017013,-0.000
 03662,0.00002225,0.00004674,-0.00030369,0.00013356,-0.00003852,-0.0003
 0632,-0.00018727,0.00017083,0.00046491,0.00000878,-0.00014913,-0.00001
 873,0.00000132,0.00000379,0.00041187,-0.00027681,-0.00041467,0.0005241
 2,0.00118709,0.00059122,0.00234331,-0.00105381,-0.00150018,0.00052479,
 0.00158110,0.00000316,-0.00060811,-0.00050104,-0.00038467,0.00079848,0
 .00050265,0.00064178,-0.00065439,0.00028826,0.00003762,-0.00131497,-0.
 00121354,0.00011522,0.00001543,-0.00001287,0.00000912,0.00025878,0.000
 24291,0.00018374,-0.00001418,-0.00002651,-0.00003979,-0.00000271,-0.00
 001280,-0.00000383,-0.00000156,0.00001156,0.00000610,-0.00009351,-0.00
 001490,0.00004100,-0.15354358,-0.06978643,-0.21771993,0.01137075,0.006
 11737,0.03014082,0.14337874,0.00014952,0.00029407,0.00025963,0.0000890
 6,0.00003505,0.00002938,-0.00027352,-0.00016301,-0.00007369,0.00002416
 ,0.00003598,0.00002274,-0.00321859,0.00261709,-0.00124978,-0.00092121,
 0.00320435,0.00075496,0.00371411,-0.00290476,0.00142925,-0.00027617,0.
 00005874,-0.00017113,0.00005175,-0.00038414,0.00018679,0.00007602,-0.0
 0032687,0.00050424,0.00094893,-0.00069821,-0.00011057,0.00006381,0.000
 19671,-0.00048649,-0.00002759,-0.00005281,0.00000642,0.00011853,0.0000
 6515,-0.00002530,0.00020986,0.00033216,-0.00018844,-0.00027580,-0.0001
 3143,0.00023180,0.00000250,0.00000245,-0.00003842,-0.00029240,-0.00032
 904,-0.00038784,0.00059131,0.00100040,0.00033752,-0.00587632,-0.005579
 92,-0.00883054,0.00190949,0.00109856,-0.00052351,-0.00033674,-0.000720
 66,-0.00003146,-0.00056470,-0.00096924,-0.00111850,0.00040039,0.000049
 45,0.00016993,-0.00141249,-0.00109011,0.00040569,0.00013193,0.00007439
 ,-0.00013897,-0.00001846,0.00027650,-0.00000065,0.00002775,-0.00000696
 ,0.00000834,-0.00001611,0.00000282,0.00000024,0.00000796,-0.00000481,-
 0.00000288,0.00015453,0.00009937,0.00001954,-0.06338403,-0.03815898,-0
 .08724350,0.00449443,0.00160249,0.01073517,0.06372807,0.04047523,0.000
 05524,0.00012669,0.00000549,0.00005737,0.00005926,-0.00001957,-0.00008
 581,-0.00008290,-0.00002670,0.00000717,0.00000083,0.00001470,-0.000381
 88,0.00032608,-0.00187422,-0.00007021,-0.00068922,-0.00012442,-0.00065
 516,0.00086396,-0.00043344,-0.00011923,0.00004846,-0.00000875,0.000090
 08,0.00042878,-0.00012919,-0.00019810,0.00069726,-0.00042150,-0.000185
 44,0.00072024,0.00042391,0.00076573,-0.00108134,0.00001428,-0.00002614
 ,0.00000540,-0.00001102,0.00006253,-0.00000880,-0.00007625,0.00003288,
 0.00012082,-0.00019199,-0.00012239,-0.00004332,0.00012832,0.00000617,0
 .00001946,-0.00002103,-0.00031458,-0.00005437,0.00042635,-0.00027249,-
 0.00079977,-0.00038967,-0.00095566,-0.00533263,0.00223675,-0.00035873,
 -0.00078650,-0.00092523,0.00064402,0.00047743,0.00035313,0.00040892,-0
 .00036045,0.00052429,-0.00034225,0.00092933,-0.00012003,0.00067381,0.0
 0073446,-0.00008968,0.00008562,0.00002395,-0.00002048,-0.00031006,-0.0
 0051694,-0.00015462,0.00001340,0.00003000,0.00003079,0.00000164,0.0000
 0966,-0.00000276,0.00000315,-0.00000632,0.00000142,0.00008847,0.000053
 31,-0.00003942,-0.16307475,-0.07158592,-0.36644618,-0.02424456,-0.0098
 4692,-0.02724933,0.18872123,0.08552004,0.39461609\\-0.00000646,0.00000
 513,-0.00001345,-0.00000103,0.00000276,-0.00000729,-0.00000072,0.00000
 099,-0.00000664,-0.00000203,-0.00000176,-0.00000236,0.00000385,-0.0000
 0441,0.00000446,0.00000237,-0.00000285,-0.00000696,0.00000375,-0.00000
 605,-0.00000155,0.00000381,-0.00000685,-0.00000049,-0.00000154,-0.0000
 0060,0.00000066,-0.00000768,0.00000020,-0.00001024,0.00000029,0.000008
 11,0.00000901,-0.00000116,0.00000902,0.00000217,-0.00000494,0.00000627
 ,-0.00000066,0.00000747,-0.00000892,-0.00001011,0.00000506,-0.00000379
 ,-0.00001403,0.00000459,-0.00000064,-0.00000627,0.00000324,0.00000031,
 -0.00000365,0.00006373,-0.00011805,-0.00026193,0.00000326,-0.00000204,
 0.00000461,-0.00000408,0.00000188,-0.00015344,0.00000393,0.00000040,0.
 00001126,0.00000111,0.00000139,0.00000970,0.00000324,0.00000062,-0.000
 02218,-0.00003700,0.00005505,0.00020956,0.00000215,-0.00000447,0.00000
 800,-0.00000290,-0.00000033,0.00000283,0.00000082,0.00000158,0.0000043
 8,0.00000269,0.00000295,0.00000329,0.00002402,0.00002362,-0.00002316,-
 0.00002788,-0.00003166,0.00002461,-0.00003576,0.00006983,0.00015169,-0
 .00000510,0.00000133,0.00008083,0.00000962,-0.00000393,0.00000875,-0.0
 0001071,0.00000490,0.00000861\\\@
 The archive entry for this job was punched.


 QUANTUM MECHANICS IS BOHRING -- M.S. GORDON
 Job cpu time:       1 days  2 hours  5 minutes 18.8 seconds.
 Elapsed time:       0 days 13 hours  6 minutes 47.2 seconds.
 File lengths (MBytes):  RWF=   5200 Int=      0 D2E=      0 Chk=    142 Scr=      1
 Normal termination of Gaussian 16 at Wed Feb  1 22:03:52 2023.
