 Entering Gaussian System, Link 0=g16
 Input=FeFeFe-B-2xH2O-broken-V04-opt.gjf
 Output=FeFeFe-B-2xH2O-broken-V04-opt.log
 Initial command:
 /software/commercial/gaussian/g16/AVX2/g16/l1.exe "/scratch1/svicchi/G09-564647.pbs02/Gau-1079700.inp" -scrdir="/scratch1/svicchi/G09-564647.pbs02/"
 Entering Link 1 = /software/commercial/gaussian/g16/AVX2/g16/l1.exe PID=   1079701.
  
 Copyright (c) 1988-2021, Gaussian, Inc.  All Rights Reserved.
  
 This is part of the Gaussian(R) 16 program.  It is based on
 the Gaussian(R) 09 system (copyright 2009, Gaussian, Inc.),
 the Gaussian(R) 03 system (copyright 2003, Gaussian, Inc.),
 the Gaussian(R) 98 system (copyright 1998, Gaussian, Inc.),
 the Gaussian(R) 94 system (copyright 1995, Gaussian, Inc.),
 the Gaussian 92(TM) system (copyright 1992, Gaussian, Inc.),
 the Gaussian 90(TM) system (copyright 1990, Gaussian, Inc.),
 the Gaussian 88(TM) system (copyright 1988, Gaussian, Inc.),
 the Gaussian 86(TM) system (copyright 1986, Carnegie Mellon
 University), and the Gaussian 82(TM) system (copyright 1983,
 Carnegie Mellon University). Gaussian is a federally registered
 trademark of Gaussian, Inc.
  
 This software contains proprietary and confidential information,
 including trade secrets, belonging to Gaussian, Inc.
  
 This software is provided under written license and may be
 used, copied, transmitted, or stored only in accord with that
 written license.
  
 The following legend is applicable only to US Government
 contracts under FAR:
  
                    RESTRICTED RIGHTS LEGEND
  
 Use, reproduction and disclosure by the US Government is
 subject to restrictions as set forth in subparagraphs (a)
 and (c) of the Commercial Computer Software - Restricted
 Rights clause in FAR 52.227-19.
  
 Gaussian, Inc.
 340 Quinnipiac St., Bldg. 40, Wallingford CT 06492
  
  
 ---------------------------------------------------------------
 Warning -- This program may not be used in any manner that
 competes with the business of Gaussian, Inc. or will provide
 assistance to any competitor of Gaussian, Inc.  The licensee
 of this program is prohibited from giving any competitor of
 Gaussian, Inc. access to this program.  By using this program,
 the user acknowledges that Gaussian, Inc. is engaged in the
 business of creating and licensing software in the field of
 computational chemistry and represents and warrants to the
 licensee that it is not a competitor of Gaussian, Inc. and that
 it will not use this program in any manner prohibited above.
 ---------------------------------------------------------------
  

 Cite this work as:
 Gaussian 16, Revision C.02,
 M. J. Frisch, G. W. Trucks, H. B. Schlegel, G. E. Scuseria, 
 M. A. Robb, J. R. Cheeseman, G. Scalmani, V. Barone, 
 G. A. Petersson, H. Nakatsuji, X. Li, M. Caricato, A. V. Marenich, 
 J. Bloino, B. G. Janesko, R. Gomperts, B. Mennucci, H. P. Hratchian, 
 J. V. Ortiz, A. F. Izmaylov, J. L. Sonnenberg, D. Williams-Young, 
 F. Ding, F. Lipparini, F. Egidi, J. Goings, B. Peng, A. Petrone, 
 T. Henderson, D. Ranasinghe, V. G. Zakrzewski, J. Gao, N. Rega, 
 G. Zheng, W. Liang, M. Hada, M. Ehara, K. Toyota, R. Fukuda, 
 J. Hasegawa, M. Ishida, T. Nakajima, Y. Honda, O. Kitao, H. Nakai, 
 T. Vreven, K. Throssell, J. A. Montgomery, Jr., J. E. Peralta, 
 F. Ogliaro, M. J. Bearpark, J. J. Heyd, E. N. Brothers, K. N. Kudin, 
 V. N. Staroverov, T. A. Keith, R. Kobayashi, J. Normand, 
 K. Raghavachari, A. P. Rendell, J. C. Burant, S. S. Iyengar, 
 J. Tomasi, M. Cossi, J. M. Millam, M. Klene, C. Adamo, R. Cammi, 
 J. W. Ochterski, R. L. Martin, K. Morokuma, O. Farkas, 
 J. B. Foresman, and D. J. Fox, Gaussian, Inc., Wallingford CT, 2019.
 
 ******************************************
 Gaussian 16:  ES64L-G16RevC.02  7-Dec-2021
                 2-May-2023 
 ******************************************
 %NProcShared=2
 Will use up to    2 processors via shared memory.
 %mem=110gb
 %chk=/scratch1/svicchi/G09-564647.pbs02/00-opt/FeFeFe-B-2xH2O-broken-V04-opt.chk
 ----------------------------------------------------------------------
 # SP Geom=AllCheckpoint um06l/Def2TZVP int=grid=ultrafine scf=(xqc,int
 rep,maxconventionalcycle=500) pop=(CM5) nosymm guess=read
 ----------------------------------------------------------------------
 1/29=7,38=1,172=1/1;
 2/12=2,15=1,40=1/2;
 3/5=44,7=101,11=2,14=-4,25=1,30=1,74=-53,75=-5,116=2/1,2,3;
 4/5=1/1;
 5/5=2,8=3,13=1,17=20,38=6,85=500/2,8;
 6/7=2,8=2,9=2,10=2,28=1,79=1/1;
 99/5=1,9=1/99;
 Structure from the checkpoint file:  "/scratch1/svicchi/G09-564647.pbs02/00-opt/FeFeFe-B-2xH2O-broken-V04-opt.chk"
 --------------
 FeFeFe-B-0xH2O
 --------------
 Charge =  0 Multiplicity = 5
 Z-Matrix found in chk file.
 O,0,1.654104,-2.10806,-1.587075
 O,0,-0.526169,-2.513544,-1.174096
 C,0,0.53715,-2.671063,-1.786764
 H,0,0.527499,-3.401721,-2.615711
 O,0,1.866797,2.23607,1.180184
 O,0,2.946151,0.272945,1.382121
 C,0,2.738628,1.47555,1.659291
 H,0,3.41098,1.918495,2.414972
 O,0,-2.106049,-0.130305,-1.49069
 O,0,2.809527,0.486539,-1.438213
 O,0,1.382451,2.213978,-1.624194
 C,0,2.384885,1.541889,-1.958105
 H,0,2.965823,1.93157,-2.81341
 O,0,-0.584441,-2.09859,1.77605
 O,0,1.609912,-2.281859,1.281187
 C,0,0.576307,-2.489457,1.976702
 H,0,0.733871,-3.106474,2.878451
 Fe,0,-1.396192,-1.141067,0.150473
 O,0,-2.203912,0.274962,1.466602
 Fe,0,0.14847,1.859447,0.029179
 O,0,-0.904179,2.103791,1.700791
 O,0,-1.425527,1.996524,-1.16606
 Fe,0,1.981819,-0.843969,-0.028618
 O,0,0.287423,-0.023408,0.040073
 C,0,-1.845344,1.324054,2.022954
 H,0,-2.420176,1.633154,2.913996
 C,0,-2.066457,1.081653,-1.755758
 H,0,-2.67276,1.412663,-2.616461
 N,0,-4.965039,0.637726,-0.129774
 N,0,-5.51582,-0.072341,0.495911
 O,0,-2.744409,-2.031597,0.238135
 O,0,0.240212,4.067771,-0.006181
 H,0,0.71057,4.24342,-0.831888
 H,0,0.879619,4.249023,0.695781
 O,0,3.996325,-1.719637,-0.363906
 H,0,4.470077,-0.986614,-0.778107
 H,0,3.775744,-2.312159,-1.09703
 Recover connectivity data from disk.
                          Input orientation:                          
 ---------------------------------------------------------------------
 Center     Atomic      Atomic             Coordinates (Angstroms)
 Number     Number       Type             X           Y           Z
 ---------------------------------------------------------------------
      1          8           0        1.654104   -2.108060   -1.587075
      2          8           0       -0.526169   -2.513544   -1.174096
      3          6           0        0.537150   -2.671063   -1.786764
      4          1           0        0.527499   -3.401721   -2.615711
      5          8           0        1.866797    2.236070    1.180184
      6          8           0        2.946151    0.272945    1.382121
      7          6           0        2.738628    1.475550    1.659291
      8          1           0        3.410980    1.918495    2.414972
      9          8           0       -2.106049   -0.130305   -1.490690
     10          8           0        2.809527    0.486539   -1.438213
     11          8           0        1.382451    2.213978   -1.624194
     12          6           0        2.384885    1.541889   -1.958105
     13          1           0        2.965823    1.931570   -2.813410
     14          8           0       -0.584441   -2.098590    1.776050
     15          8           0        1.609912   -2.281859    1.281187
     16          6           0        0.576307   -2.489457    1.976702
     17          1           0        0.733871   -3.106474    2.878451
     18         26           0       -1.396192   -1.141067    0.150473
     19          8           0       -2.203912    0.274962    1.466602
     20         26           0        0.148470    1.859447    0.029179
     21          8           0       -0.904179    2.103791    1.700791
     22          8           0       -1.425527    1.996524   -1.166060
     23         26           0        1.981819   -0.843969   -0.028618
     24          8           0        0.287423   -0.023408    0.040073
     25          6           0       -1.845344    1.324054    2.022954
     26          1           0       -2.420176    1.633154    2.913996
     27          6           0       -2.066457    1.081653   -1.755758
     28          1           0       -2.672760    1.412663   -2.616461
     29          7           0       -4.965039    0.637726   -0.129774
     30          7           0       -5.515820   -0.072341    0.495911
     31          8           0       -2.744409   -2.031597    0.238135
     32          8           0        0.240212    4.067771   -0.006181
     33          1           0        0.710570    4.243420   -0.831888
     34          1           0        0.879619    4.249023    0.695781
     35          8           0        3.996325   -1.719637   -0.363906
     36          1           0        4.470077   -0.986614   -0.778107
     37          1           0        3.775744   -2.312159   -1.097030
 ---------------------------------------------------------------------
                    Distance matrix (angstroms):
                    1          2          3          4          5
     1  O    0.000000
     2  O    2.255784   0.000000
     3  C    1.266663   1.237264   0.000000
     4  H    2.000222   1.994324   1.105037   0.000000
     5  O    5.155039   5.816163   5.886484   6.927281   0.000000
     6  O    4.019290   5.133787   4.950990   5.944385   2.249365
     7  C    4.955537   5.882164   5.823762   6.852190   1.252207
     8  H    5.942738   6.930045   6.854015   7.869367   2.002513
     9  O    4.249654   2.876818   3.678262   4.347805   5.340113
    10  O    2.844135   4.494121   3.905846   4.659691   3.287187
    11  O    4.330726   5.118094   4.960301   5.766292   2.845982
    12  C    3.740833   5.053261   4.603525   5.321805   3.255635
    13  H    4.420760   5.885609   5.304402   5.867581   4.153236
    14  O    4.040023   2.979756   3.778801   4.714035   5.015267
    15  O    2.873863   3.262658   3.273320   4.196608   4.526353
    16  C    3.742675   3.338197   3.768049   4.682399   4.962903
    17  H    4.667396   4.285138   4.689618   5.505958   5.719301
    18  Fe   3.641216   2.096453   3.135536   4.057452   4.807542
    19  O    5.466994   4.190927   5.174638   6.135461   4.527544
    20  Fe   4.540961   4.585418   4.896350   5.900762   2.102214
    21  O    5.924066   5.452307   6.086025   7.140907   2.822559
    22  O    5.148688   4.598872   5.101347   5.920882   4.049894
    23  Fe   2.033251   3.223291   2.918290   3.917932   3.310751
    24  O    2.976777   2.887372   3.226418   4.303931   2.983206
    25  C    6.087516   5.166092   6.012586   7.034241   3.914336
    26  H    7.131345   6.123305   7.026322   8.038434   4.663448
    27  C    4.903600   3.954271   4.567560   5.250597   5.042115
    28  H    5.672467   4.701422   5.260108   5.780999   5.974955
    29  N    7.312737   5.542985   6.630821   7.257065   7.137554
    30  N    7.738914   5.800432   6.971543   7.568928   7.765309
    31  O    4.762789   2.673436   3.908678   4.552698   6.353240
    32  O    6.529870   6.727932   6.976427   7.917417   2.721832
    33  H    6.465436   6.877732   6.982259   7.852625   3.068346
    34  H    6.798806   7.155766   7.359885   8.344091   2.293719
    35  O    2.670770   4.662580   3.859485   4.464615   4.750444
    36  H    3.137160   5.239351   4.395756   4.975284   4.582321
    37  H    2.187043   4.307314   3.330621   3.747617   5.432879
                    6          7          8          9         10
     6  O    0.000000
     7  C    1.251458   0.000000
     8  H    1.997669   1.104224   0.000000
     9  O    5.825837   5.997670   7.063242   0.000000
    10  O    2.831708   3.252338   4.154429   4.954406   0.000000
    11  O    3.905214   3.628466   4.529581   4.205130   2.248373
    12  C    3.616953   3.635256   4.507605   4.814893   1.250749
    13  H    4.511530   4.501625   5.247315   5.632477   2.000927
    14  O    4.271351   4.881690   5.701630   4.106218   5.341666
    15  O    2.884917   3.941457   4.708746   5.110856   4.061803
    16  C    3.687893   4.527434   5.259039   4.978297   5.050294
    17  H    4.307396   5.147849   5.712446   6.001010   5.987627
    18  Fe   4.729940   5.120542   6.131703   2.054009   4.781328
    19  O    5.150756   5.089916   5.926856   2.986536   5.798042
    20  Fe   3.489192   3.084406   4.042211   3.369269   3.334567
    21  O    4.275347   3.696816   4.377783   4.076914   5.124496
    22  O    5.345607   5.059072   6.018445   2.256523   4.504421
    23  Fe   2.041474   2.966811   3.955356   4.399731   2.107679
    24  O    2.992950   3.298052   4.378098   2.843127   2.967555
    25  C    4.947112   4.600870   5.304336   3.811669   5.860796
    26  H    5.744064   5.311533   5.859422   4.754968   6.899728
    27  C    5.968797   5.908177   6.935244   1.241238   4.922420
    28  H    6.989977   6.897038   7.910947   1.992303   5.683436
    29  N    8.062619   7.952936   8.847248   3.258188   7.885350
    30  N    8.515254   8.478522   9.345265   3.946705   8.565313
    31  O    6.245165   6.662091   7.630902   2.647877   6.324346
    32  O    4.863146   3.966798   4.531571   5.033145   4.634363
    33  H    5.065997   4.240294   4.820746   5.243742   4.345964
    34  H    4.533300   3.475114   3.846397   5.733531   4.736535
    35  O    2.849887   3.985517   4.615279   6.405824   2.725773
    36  H    2.928383   3.873122   4.444896   6.669818   2.315890
    37  H    3.676571   4.797880   5.510503   6.285773   2.980384
                   11         12         13         14         15
    11  O    0.000000
    12  C    1.252228   0.000000
    13  H    2.000264   1.104938   0.000000
    14  O    5.833401   6.001158   7.064680   0.000000
    15  O    5.357754   5.070961   6.029693   2.256914   0.000000
    16  C    5.978179   5.916537   6.942654   1.241118   1.263003
    17  H    7.000120   6.908357   7.922170   1.992251   1.999672
    18  Fe   4.703895   5.093221   6.103513   2.053848   3.408311
    19  O    5.116132   5.864365   6.912960   2.890016   4.595320
    20  Fe   2.093333   3.008603   4.002873   4.388026   4.566591
    21  O    4.036873   4.951888   5.948494   4.215199   5.072539
    22  O    2.853404   3.918325   4.690622   5.112083   5.788564
    23  Fe   3.500878   3.094786   4.053017   3.378845   1.980260
    24  O    2.995792   3.292752   4.374715   2.842559   2.896540
    25  C    4.950991   5.813013   6.848855   3.655862   5.048923
    26  H    5.949159   6.843560   7.867733   4.311700   5.851068
    27  C    3.632415   4.479644   5.211989   4.978352   5.835404
    28  H    4.251051   5.101951   5.665834   5.998677   6.868947
    29  N    6.708837   7.627692   8.471984   5.505382   7.331082
    30  N    7.570221   8.429061   9.322314   5.482968   7.501645
    31  O    6.206783   6.625929   7.591138   2.652382   4.484496
    32  O    2.712789   3.845739   4.457897   6.471507   6.622024
    33  H    2.279870   3.371938   3.789096   6.978502   6.917598
    34  H    3.126745   4.078911   4.694386   6.603230   6.597609
    35  O    4.888148   3.971871   4.515896   5.070151   2.952523
    36  H    4.526929   3.483353   3.862776   5.771340   3.754850
    37  H    5.147006   4.186839   4.648781   5.226032   3.216778
                   16         17         18         19         20
    16  C    0.000000
    17  H    1.103942   0.000000
    18  Fe   3.007328   3.980183   0.000000
    19  O    3.953711   4.696594   2.095172   0.000000
    20  Fe   4.784230   5.755121   3.376948   3.179698   0.000000
    21  O    4.833828   5.587213   3.629692   2.255829   1.990493
    22  O    5.831665   6.860150   3.402734   3.240458   1.981124
    23  Fe   2.950323   3.889390   3.395777   4.583452   3.266951
    24  O    3.148870   4.214380   2.023835   2.886306   1.888007
    25  C    4.517676   5.197480   3.128058   1.240440   2.870031
    26  H    5.182022   5.693272   4.047457   1.996598   3.869279
    27  C    5.802438   6.845300   3.003907   3.324643   2.949045
    28  H    6.846906   7.888079   3.975813   4.264456   3.893375
    29  N    6.702464   7.452921   3.997413   3.209959   5.259833
    30  N    6.719316   7.344460   4.269993   3.468659   6.002818
    31  O    3.776163   4.497228   1.618152   2.668611   4.853106
    32  O    6.858719   7.748199   5.462083   4.746391   2.210512
    33  H    7.296426   8.233353   5.864826   5.433776   2.596290
    34  H    6.865848   7.673893   5.876202   5.088761   2.586312
    35  O    4.215162   4.804144   5.447804   6.765510   5.269758
    36  H    5.000895   5.641228   5.941315   7.153490   5.237181
    37  H    4.440232   5.068370   5.447627   7.001549   5.641610
                   21         22         23         24         25
    21  O    0.000000
    22  O    2.915844   0.000000
    23  Fe   4.473156   4.579539   0.000000
    24  O    2.950064   2.910168   1.883883   0.000000
    25  C    1.263950   3.286073   4.853499   3.208764   0.000000
    26  H    1.997902   4.215237   5.845740   4.281907   1.104505
    27  C    3.787266   1.263141   4.804120   3.160209   3.792929
    28  H    4.716376   2.000037   5.783980   4.228730   4.713453
    29  N    4.689445   3.930441   7.103836   5.296631   3.851984
    30  N    5.239706   4.875741   7.555470   5.821324   4.213570
    31  O    4.756810   4.465084   4.880456   3.641985   3.905674
    32  O    2.842640   2.900012   5.211419   4.091713   3.999364
    33  H    3.687803   3.118192   5.304983   4.375522   4.817211
    34  H    2.965468   3.722083   5.261004   4.362833   4.212156
    35  O    6.549543   6.621917   2.222037   4.098335   7.006158
    36  H    6.676688   6.618744   2.602597   4.369414   7.284893
    37  H    7.016416   6.754460   2.552499   4.324323   7.385999
                   26         27         28         29         30
    26  H    0.000000
    27  C    4.715493   0.000000
    28  H    5.540611   1.103622   0.000000
    29  N    4.090445   3.353010   3.469680   0.000000
    30  N    4.282390   4.277829   4.469350   1.095005   0.000000
    31  O    4.549259   3.758664   4.474011   3.491682   3.403800
    32  O    4.640308   4.159164   4.727427   6.234992   7.108061
    33  H    5.535947   4.308385   4.758656   6.760661   7.691344
    34  H    4.759401   4.972086   5.624525   6.919757   7.721125
    35  O    7.947159   6.822155   7.704674   9.269198   9.691944
    36  H    8.244416   6.925302   7.756043   9.595844  10.108272
    37  H    8.369184   6.788460   7.600406   9.275704   9.689551
                   31         32         33         34         35
    31  O    0.000000
    32  O    6.794847   0.000000
    33  H    7.242767   0.966375   0.000000
    34  H    7.265618   0.966667   1.537004   0.000000
    35  O    6.774752   6.908722   6.824459   6.816282   0.000000
    36  H    7.360268   6.635845   6.441276   6.517333   0.966088
    37  H    6.661364   7.375191   7.241630   7.392619   0.968096
                   36         37
    36  H    0.000000
    37  H    1.529993   0.000000
 Symmetry turned off by external request.
 Stoichiometry    C6H10Fe3N2O16(5)
 Framework group  C1[X(C6H10Fe3N2O16)]
 Deg. of freedom   105
 Full point group                 C1      NOp   1
 Rotational constants (GHZ):           0.2157378           0.1599964           0.1235048
 Standard basis: def2TZVP (5D, 7F)
   939 basis functions,  1610 primitive gaussians,  1080 cartesian basis functions
   135 alpha electrons      131 beta electrons
       nuclear repulsion energy      5062.9468341022 Hartrees.
 NAtoms=   37 NActive=   37 NUniq=   37 SFac= 1.00D+00 NAtFMM=   60 NAOKFM=F Big=F
 Integral buffers will be    131072 words long.
 Raffenetti 2 integral format.
 Two-electron integral symmetry is turned off.
 One-electron integrals computed using PRISM.
   1 Symmetry operations used in ECPInt.
 ECPInt:  NShTT=   61075 NPrTT=  211011 LenC2=   51266 LenP2D=  114668.
 LDataN:  DoStor=T MaxTD1= 6 Len=  172
 NBasis=   939 RedAO= T EigKep=  2.02D-04  NBF=   939
 NBsUse=   939 1.00D-06 EigRej= -1.00D+00 NBFU=   939
 Initial guess from the checkpoint file:  "/scratch1/svicchi/G09-564647.pbs02/00-opt/FeFeFe-B-2xH2O-broken-V04-opt.chk"
 B after Tr=     0.000000    0.000000    0.000000
         Rot=    1.000000    0.000000    0.000000    0.000000 Ang=   0.00 deg.
 Initial guess <Sx>= 0.0000 <Sy>= 0.0000 <Sz>= 2.0000 <S**2>=11.0043 S= 2.8547
 Requested convergence on RMS density matrix=1.00D-08 within 500 cycles.
 Requested convergence on MAX density matrix=1.00D-06.
 Requested convergence on             energy=1.00D-06.
 No special actions if energy rises.
 EnCoef did     2 forward-backward iterations
 EnCoef did     3 forward-backward iterations
 EnCoef did     4 forward-backward iterations
 EnCoef did     3 forward-backward iterations
 EnCoef did     2 forward-backward iterations
 EnCoef did    11 forward-backward iterations
 EnCoef did     3 forward-backward iterations
 Restarting incremental Fock formation.
 SCF Done:  E(UM06L) =  -5339.76934828     A.U. after   26 cycles
            NFock= 26  Conv=0.56D-08     -V/T= 2.0017
 <Sx>= 0.0000 <Sy>= 0.0000 <Sz>= 2.0000 <S**2>=10.8992 S= 2.8390
 <L.S>=  0.00000000000    
 Annihilation of the first spin contaminant:
 S**2 before annihilation    10.8992,   after    20.5610
 QCSCF skips out because SCF is already converged.

 **********************************************************************

            Population analysis using the SCF Density.

 **********************************************************************

 Alpha  occ. eigenvalues -- -255.64958-255.64711-255.62638 -30.09926 -30.06652
 Alpha  occ. eigenvalues --  -29.98243 -25.87020 -25.86980 -25.86879 -25.84141
 Alpha  occ. eigenvalues --  -25.84102 -25.83746 -25.78407 -25.78388 -25.78376
 Alpha  occ. eigenvalues --  -19.02420 -19.01999 -18.99031 -18.98928 -18.98726
 Alpha  occ. eigenvalues --  -18.98665 -18.98368 -18.98152 -18.98094 -18.98064
 Alpha  occ. eigenvalues --  -18.97989 -18.97856 -18.97539 -18.97427 -18.97212
 Alpha  occ. eigenvalues --  -18.96753 -14.24223 -14.24081 -10.18980 -10.18845
 Alpha  occ. eigenvalues --  -10.17881 -10.17760 -10.17719 -10.17443  -3.66635
 Alpha  occ. eigenvalues --   -3.60518  -3.41818  -2.40725  -2.40627  -2.40431
 Alpha  occ. eigenvalues --   -2.35556  -2.35397  -2.33238  -2.16290  -2.16185
 Alpha  occ. eigenvalues --   -2.16116  -1.07560  -1.07030  -1.06605  -1.06324
 Alpha  occ. eigenvalues --   -1.06100  -1.05914  -1.05149  -1.04581  -1.04017
 Alpha  occ. eigenvalues --   -0.99540  -0.99197  -0.98869  -0.98490  -0.98350
 Alpha  occ. eigenvalues --   -0.98142  -0.92276  -0.88608  -0.59791  -0.58823
 Alpha  occ. eigenvalues --   -0.58466  -0.58175  -0.57900  -0.57623  -0.54768
 Alpha  occ. eigenvalues --   -0.54225  -0.49867  -0.49654  -0.49082  -0.48531
 Alpha  occ. eigenvalues --   -0.48329  -0.47884  -0.47660  -0.47344  -0.46818
 Alpha  occ. eigenvalues --   -0.46696  -0.46589  -0.46325  -0.45905  -0.44944
 Alpha  occ. eigenvalues --   -0.44277  -0.42814  -0.42449  -0.42319  -0.41669
 Alpha  occ. eigenvalues --   -0.41202  -0.41038  -0.40947  -0.40873  -0.40629
 Alpha  occ. eigenvalues --   -0.40231  -0.39355  -0.39283  -0.38184  -0.38032
 Alpha  occ. eigenvalues --   -0.37591  -0.37485  -0.35831  -0.35670  -0.35356
 Alpha  occ. eigenvalues --   -0.34225  -0.33590  -0.33277  -0.33085  -0.31218
 Alpha  occ. eigenvalues --   -0.31016  -0.30918  -0.30074  -0.29650  -0.29383
 Alpha  occ. eigenvalues --   -0.29113  -0.29086  -0.28820  -0.28585  -0.28291
 Alpha  occ. eigenvalues --   -0.28048  -0.27684  -0.27495  -0.26999  -0.25904
 Alpha  occ. eigenvalues --   -0.24704  -0.24359  -0.23269  -0.23171  -0.22532
 Alpha virt. eigenvalues --   -0.16893  -0.16732  -0.16059  -0.14245  -0.11198
 Alpha virt. eigenvalues --   -0.10578  -0.04141  -0.03605  -0.03026  -0.02949
 Alpha virt. eigenvalues --   -0.02810  -0.02482  -0.02416  -0.02077   0.01236
 Alpha virt. eigenvalues --    0.02210   0.06498   0.07192   0.07384   0.07962
 Alpha virt. eigenvalues --    0.08538   0.08878   0.08983   0.09229   0.09496
 Alpha virt. eigenvalues --    0.11101   0.11594   0.12058   0.14455   0.15219
 Alpha virt. eigenvalues --    0.15985   0.16703   0.17255   0.17912   0.18907
 Alpha virt. eigenvalues --    0.19193   0.20442   0.21357   0.22257   0.22559
 Alpha virt. eigenvalues --    0.22657   0.23299   0.23606   0.23994   0.24677
 Alpha virt. eigenvalues --    0.24806   0.25201   0.25527   0.26476   0.27065
 Alpha virt. eigenvalues --    0.27726   0.28029   0.28386   0.28745   0.29357
 Alpha virt. eigenvalues --    0.29804   0.30059   0.30663   0.31015   0.31175
 Alpha virt. eigenvalues --    0.31708   0.32155   0.32377   0.32891   0.33240
 Alpha virt. eigenvalues --    0.33668   0.33732   0.34289   0.34466   0.35429
 Alpha virt. eigenvalues --    0.35940   0.36429   0.37225   0.37493   0.37767
 Alpha virt. eigenvalues --    0.38110   0.38736   0.38978   0.39176   0.39525
 Alpha virt. eigenvalues --    0.39982   0.40188   0.40535   0.40853   0.41425
 Alpha virt. eigenvalues --    0.41623   0.42115   0.42613   0.42937   0.43166
 Alpha virt. eigenvalues --    0.43798   0.44438   0.44844   0.44921   0.45305
 Alpha virt. eigenvalues --    0.46184   0.46446   0.47735   0.48769   0.49393
 Alpha virt. eigenvalues --    0.49479   0.49876   0.50469   0.51560   0.51905
 Alpha virt. eigenvalues --    0.52263   0.52988   0.53465   0.53981   0.54419
 Alpha virt. eigenvalues --    0.54771   0.54911   0.55198   0.56320   0.56592
 Alpha virt. eigenvalues --    0.56988   0.57956   0.58404   0.58504   0.59490
 Alpha virt. eigenvalues --    0.60868   0.61406   0.62108   0.62588   0.62964
 Alpha virt. eigenvalues --    0.63933   0.64439   0.65034   0.66334   0.67228
 Alpha virt. eigenvalues --    0.67840   0.68077   0.68743   0.69219   0.69804
 Alpha virt. eigenvalues --    0.70331   0.70834   0.71062   0.71496   0.71640
 Alpha virt. eigenvalues --    0.72049   0.72721   0.73295   0.73408   0.73970
 Alpha virt. eigenvalues --    0.74142   0.75072   0.75705   0.75780   0.76151
 Alpha virt. eigenvalues --    0.76706   0.77052   0.78034   0.78781   0.79342
 Alpha virt. eigenvalues --    0.80812   0.80966   0.81592   0.82164   0.82704
 Alpha virt. eigenvalues --    0.83206   0.84133   0.85114   0.86307   0.87942
 Alpha virt. eigenvalues --    0.88176   0.88916   0.89913   0.90390   0.90946
 Alpha virt. eigenvalues --    0.91398   0.92243   0.93043   0.93427   0.94084
 Alpha virt. eigenvalues --    0.94235   0.95107   0.95406   0.95975   0.96779
 Alpha virt. eigenvalues --    0.98099   0.98561   0.99045   0.99796   1.00175
 Alpha virt. eigenvalues --    1.01248   1.01517   1.02949   1.03510   1.04113
 Alpha virt. eigenvalues --    1.04588   1.04935   1.05977   1.06294   1.07088
 Alpha virt. eigenvalues --    1.07769   1.08105   1.08633   1.09401   1.10038
 Alpha virt. eigenvalues --    1.11440   1.11788   1.12346   1.13888   1.14941
 Alpha virt. eigenvalues --    1.16121   1.18068   1.19429   1.19984   1.20695
 Alpha virt. eigenvalues --    1.21150   1.22706   1.23256   1.24427   1.25268
 Alpha virt. eigenvalues --    1.25638   1.25894   1.27200   1.27582   1.28864
 Alpha virt. eigenvalues --    1.31260   1.31942   1.32832   1.33587   1.34953
 Alpha virt. eigenvalues --    1.35987   1.36896   1.37707   1.39203   1.40736
 Alpha virt. eigenvalues --    1.41393   1.41684   1.43615   1.43832   1.44728
 Alpha virt. eigenvalues --    1.45709   1.46406   1.46604   1.46869   1.48261
 Alpha virt. eigenvalues --    1.48866   1.49797   1.49935   1.50825   1.52417
 Alpha virt. eigenvalues --    1.52994   1.53387   1.54399   1.54729   1.55475
 Alpha virt. eigenvalues --    1.57643   1.57952   1.58672   1.59119   1.60188
 Alpha virt. eigenvalues --    1.60269   1.61449   1.62194   1.63149   1.63687
 Alpha virt. eigenvalues --    1.64044   1.64283   1.64833   1.67461   1.68245
 Alpha virt. eigenvalues --    1.69216   1.69649   1.69891   1.70954   1.71833
 Alpha virt. eigenvalues --    1.72682   1.73157   1.73563   1.74300   1.75058
 Alpha virt. eigenvalues --    1.75542   1.76008   1.77267   1.78575   1.79303
 Alpha virt. eigenvalues --    1.79952   1.80431   1.81111   1.82204   1.82342
 Alpha virt. eigenvalues --    1.83557   1.84290   1.87103   1.87374   1.87767
 Alpha virt. eigenvalues --    1.88403   1.89078   1.90502   1.92141   1.92743
 Alpha virt. eigenvalues --    1.93030   1.93871   1.94167   1.95082   1.95961
 Alpha virt. eigenvalues --    1.97312   1.97493   1.98095   1.98843   1.99948
 Alpha virt. eigenvalues --    2.00234   2.00764   2.01540   2.02635   2.02725
 Alpha virt. eigenvalues --    2.03601   2.04352   2.05807   2.06383   2.07016
 Alpha virt. eigenvalues --    2.07407   2.08081   2.08481   2.09438   2.10011
 Alpha virt. eigenvalues --    2.11091   2.11407   2.11783   2.12309   2.13129
 Alpha virt. eigenvalues --    2.13627   2.13844   2.14975   2.15728   2.16121
 Alpha virt. eigenvalues --    2.17528   2.18686   2.18958   2.19362   2.20004
 Alpha virt. eigenvalues --    2.20472   2.20610   2.21961   2.22737   2.23553
 Alpha virt. eigenvalues --    2.24597   2.25253   2.25824   2.26385   2.26861
 Alpha virt. eigenvalues --    2.27727   2.28025   2.28556   2.30186   2.30428
 Alpha virt. eigenvalues --    2.31792   2.33527   2.33996   2.34500   2.35054
 Alpha virt. eigenvalues --    2.36758   2.37079   2.39727   2.40147   2.42418
 Alpha virt. eigenvalues --    2.43879   2.45263   2.46209   2.46545   2.47957
 Alpha virt. eigenvalues --    2.48621   2.48727   2.49300   2.50909   2.51693
 Alpha virt. eigenvalues --    2.54516   2.55370   2.57176   2.58288   2.58696
 Alpha virt. eigenvalues --    2.59530   2.62997   2.64162   2.64883   2.65513
 Alpha virt. eigenvalues --    2.66301   2.66711   2.67586   2.68206   2.69021
 Alpha virt. eigenvalues --    2.69248   2.70053   2.71315   2.72045   2.73044
 Alpha virt. eigenvalues --    2.73273   2.74491   2.75649   2.77631   2.81351
 Alpha virt. eigenvalues --    2.82162   2.83095   2.83617   2.85077   2.85520
 Alpha virt. eigenvalues --    2.87022   2.87709   2.89167   2.90804   2.92956
 Alpha virt. eigenvalues --    2.93082   2.94731   2.95659   2.96317   2.97278
 Alpha virt. eigenvalues --    2.97802   2.98077   2.98639   2.99189   3.00404
 Alpha virt. eigenvalues --    3.02172   3.02970   3.03525   3.04551   3.05144
 Alpha virt. eigenvalues --    3.05931   3.06119   3.07281   3.07443   3.08479
 Alpha virt. eigenvalues --    3.09156   3.10173   3.10786   3.11612   3.11986
 Alpha virt. eigenvalues --    3.12777   3.13708   3.14029   3.14424   3.14859
 Alpha virt. eigenvalues --    3.15529   3.16028   3.16656   3.17029   3.17412
 Alpha virt. eigenvalues --    3.17573   3.19122   3.19440   3.20043   3.21792
 Alpha virt. eigenvalues --    3.22227   3.23062   3.23443   3.24858   3.25535
 Alpha virt. eigenvalues --    3.26045   3.26508   3.27407   3.28380   3.28621
 Alpha virt. eigenvalues --    3.30535   3.31307   3.32324   3.33409   3.34133
 Alpha virt. eigenvalues --    3.36942   3.38085   3.39063   3.40655   3.43388
 Alpha virt. eigenvalues --    3.44663   3.45475   3.45739   3.46251   3.46625
 Alpha virt. eigenvalues --    3.47240   3.48354   3.48428   3.48692   3.49285
 Alpha virt. eigenvalues --    3.49691   3.50252   3.50336   3.51438   3.51704
 Alpha virt. eigenvalues --    3.52499   3.53401   3.54711   3.56009   3.56291
 Alpha virt. eigenvalues --    3.56563   3.58579   3.59934   3.61267   3.62276
 Alpha virt. eigenvalues --    3.62980   3.63344   3.63492   3.64193   3.65974
 Alpha virt. eigenvalues --    3.66519   3.67671   3.68108   3.68589   3.69505
 Alpha virt. eigenvalues --    3.72013   3.72215   3.73105   3.73837   3.74231
 Alpha virt. eigenvalues --    3.74825   3.74908   3.76201   3.79021   3.80709
 Alpha virt. eigenvalues --    3.80959   3.81986   3.82513   3.82721   3.83379
 Alpha virt. eigenvalues --    3.84403   3.85033   3.87158   3.87981   3.90514
 Alpha virt. eigenvalues --    3.91102   3.92249   3.92995   3.94345   3.95605
 Alpha virt. eigenvalues --    3.96682   3.97064   3.99015   3.99864   4.00826
 Alpha virt. eigenvalues --    4.01250   4.02559   4.04540   4.05914   4.08293
 Alpha virt. eigenvalues --    4.08866   4.09354   4.10107   4.11882   4.12144
 Alpha virt. eigenvalues --    4.14214   4.14653   4.15174   4.17244   4.18424
 Alpha virt. eigenvalues --    4.21287   4.21778   4.22721   4.22814   4.23188
 Alpha virt. eigenvalues --    4.23492   4.23681   4.24328   4.26179   4.26838
 Alpha virt. eigenvalues --    4.28965   4.30958   4.31540   4.35707   4.38908
 Alpha virt. eigenvalues --    4.44793   4.46924   4.47493   4.48015   4.48641
 Alpha virt. eigenvalues --    4.49867   4.50647   4.52241   4.52855   4.55132
 Alpha virt. eigenvalues --    4.56252   4.56486   4.58716   4.59231   4.60482
 Alpha virt. eigenvalues --    4.61641   4.63639   4.64723   4.67454   5.09450
 Alpha virt. eigenvalues --    5.09490   5.12139   5.15748   5.17393   5.18290
 Alpha virt. eigenvalues --    5.18650   5.23520   5.23924   5.24018   5.24219
 Alpha virt. eigenvalues --    5.24643   5.24805   5.25149   5.25321   5.25567
 Alpha virt. eigenvalues --    5.25822   5.26157   5.26318   5.26441   5.26736
 Alpha virt. eigenvalues --    5.26987   5.27456   5.27787   5.28001   5.29350
 Alpha virt. eigenvalues --    5.29509   5.30093   5.30172   5.30765   5.31506
 Alpha virt. eigenvalues --    5.32036   5.32574   5.33056   5.33363   5.33877
 Alpha virt. eigenvalues --    5.34285   5.35002   5.36124   5.36493   5.36737
 Alpha virt. eigenvalues --    5.39320   5.39909   5.40198   5.40795   5.41629
 Alpha virt. eigenvalues --    5.43374   5.44510   5.45232   5.45774   5.48630
 Alpha virt. eigenvalues --    5.49042   5.50793   5.51432   5.52131   5.53514
 Alpha virt. eigenvalues --    5.54381   5.54721   5.58624   5.59026   5.59408
 Alpha virt. eigenvalues --    5.59580   5.60147   5.60974   5.62158   5.62942
 Alpha virt. eigenvalues --    5.63640   5.64312   5.65193   5.67068   5.68989
 Alpha virt. eigenvalues --    5.69715   5.69779   5.70102   5.70235   5.70615
 Alpha virt. eigenvalues --    5.88702   5.89651   5.89766   5.94038   5.94463
 Alpha virt. eigenvalues --    5.94739   5.95863   6.05988   6.06627   6.08066
 Alpha virt. eigenvalues --    6.08890   6.09741   6.09872   6.11141   6.11816
 Alpha virt. eigenvalues --    6.16971   6.17145   6.17339   6.17664   6.18655
 Alpha virt. eigenvalues --    6.18835   6.19820   6.21915   6.22116   6.22610
 Alpha virt. eigenvalues --    6.23366   6.27857   6.32827   6.35813   6.37463
 Alpha virt. eigenvalues --    6.38314   6.42379   6.42432   6.42567   6.43474
 Alpha virt. eigenvalues --    6.44242   6.45170   6.47688   6.48331   6.48865
 Alpha virt. eigenvalues --    6.49025   6.49865   6.50292   6.50523   6.50623
 Alpha virt. eigenvalues --    6.51213   6.52743   6.53335   6.54397   6.55205
 Alpha virt. eigenvalues --    6.55493   6.56583   6.57798   6.58152   6.59316
 Alpha virt. eigenvalues --    6.60020   6.60837   6.62888   6.63073   6.64044
 Alpha virt. eigenvalues --    6.64335   6.65596   6.66265   6.67434   6.67551
 Alpha virt. eigenvalues --    6.68745   6.69404   6.70221   6.70379   6.73243
 Alpha virt. eigenvalues --    6.73784   6.74175   6.75855   6.77111   6.80113
 Alpha virt. eigenvalues --    6.81732   6.84869   6.85510   6.87202   6.88260
 Alpha virt. eigenvalues --    6.88652   6.89014   6.90401   6.91133   6.91522
 Alpha virt. eigenvalues --    6.92422   6.93558   6.95808   6.97595   6.98187
 Alpha virt. eigenvalues --    6.98717   6.99414   7.00721   7.00885   7.04193
 Alpha virt. eigenvalues --    7.04886   7.06816   7.07129   7.07967   7.09978
 Alpha virt. eigenvalues --    7.10949   7.11246   7.11962   7.13536   7.13998
 Alpha virt. eigenvalues --    7.16328   7.23498   7.23690   7.24450   7.25229
 Alpha virt. eigenvalues --    7.26658   7.26923   7.27448   7.28015   7.28261
 Alpha virt. eigenvalues --    7.29664   7.30058   7.30328   7.31072   7.34394
 Alpha virt. eigenvalues --    7.34744   7.37097   7.37992   7.41637   7.47575
 Alpha virt. eigenvalues --   23.21920  23.22260  23.23412  23.24465  23.25464
 Alpha virt. eigenvalues --   23.28195  31.50585  32.25580  43.68676  43.69870
 Alpha virt. eigenvalues --   43.75268  43.83206  43.92356  43.97138  43.97507
 Alpha virt. eigenvalues --   44.09721  44.10945  44.15698  44.15866  44.18081
 Alpha virt. eigenvalues --   44.19624  44.21760  44.31370  44.32774
  Beta  occ. eigenvalues -- -255.64879-255.64790-255.62527 -30.09823 -29.98327
  Beta  occ. eigenvalues --  -29.97484 -25.86936 -25.86871 -25.86773 -25.78490
  Beta  occ. eigenvalues --  -25.78480 -25.78460 -25.78232 -25.76918 -25.76758
  Beta  occ. eigenvalues --  -19.02265 -19.02154 -18.98941 -18.98929 -18.98802
  Beta  occ. eigenvalues --  -18.98716 -18.98448 -18.98366 -18.97994 -18.97868
  Beta  occ. eigenvalues --  -18.97773 -18.97653 -18.97539 -18.97271 -18.96999
  Beta  occ. eigenvalues --  -18.95214 -14.24222 -14.24079 -10.18984 -10.18843
  Beta  occ. eigenvalues --  -10.17883 -10.17760 -10.17709 -10.17444  -3.66527
  Beta  occ. eigenvalues --   -3.41926  -3.41875  -2.40651  -2.40509  -2.40308
  Beta  occ. eigenvalues --   -2.18659  -2.16354  -2.16235  -2.16177  -2.15234
  Beta  occ. eigenvalues --   -2.14914  -1.07570  -1.07060  -1.06567  -1.06102
  Beta  occ. eigenvalues --   -1.05980  -1.05471  -1.05145  -1.04334  -1.04258
  Beta  occ. eigenvalues --   -0.99549  -0.99236  -0.98779  -0.98368  -0.98094
  Beta  occ. eigenvalues --   -0.97644  -0.92223  -0.84698  -0.59779  -0.58828
  Beta  occ. eigenvalues --   -0.58462  -0.57928  -0.57806  -0.57124  -0.54586
  Beta  occ. eigenvalues --   -0.54417  -0.49860  -0.49610  -0.48733  -0.48467
  Beta  occ. eigenvalues --   -0.48338  -0.47750  -0.47135  -0.46987  -0.46742
  Beta  occ. eigenvalues --   -0.46311  -0.46171  -0.45670  -0.45628  -0.44717
  Beta  occ. eigenvalues --   -0.44180  -0.42643  -0.42311  -0.42114  -0.41552
  Beta  occ. eigenvalues --   -0.41094  -0.41005  -0.40781  -0.40575  -0.40294
  Beta  occ. eigenvalues --   -0.40020  -0.39360  -0.39112  -0.37293  -0.36055
  Beta  occ. eigenvalues --   -0.35804  -0.35314  -0.34478  -0.33481  -0.31902
  Beta  occ. eigenvalues --   -0.31468  -0.31203  -0.30838  -0.30242  -0.30053
  Beta  occ. eigenvalues --   -0.29982  -0.29612  -0.29354  -0.29114  -0.28753
  Beta  occ. eigenvalues --   -0.28416  -0.28184  -0.28042  -0.27891  -0.27766
  Beta  occ. eigenvalues --   -0.27105  -0.25699  -0.25472  -0.24888  -0.24220
  Beta  occ. eigenvalues --   -0.24026
  Beta virt. eigenvalues --   -0.17096  -0.16417  -0.16296  -0.15147  -0.12151
  Beta virt. eigenvalues --   -0.11647  -0.11418  -0.10463  -0.10327  -0.06540
  Beta virt. eigenvalues --   -0.04175  -0.03616  -0.03026  -0.02923  -0.02627
  Beta virt. eigenvalues --   -0.02481  -0.01933  -0.01747   0.01283   0.02167
  Beta virt. eigenvalues --    0.06523   0.07220   0.07355   0.07879   0.08605
  Beta virt. eigenvalues --    0.08847   0.09044   0.09245   0.09472   0.11106
  Beta virt. eigenvalues --    0.11678   0.11899   0.14485   0.15118   0.16392
  Beta virt. eigenvalues --    0.16917   0.16962   0.17943   0.18731   0.19378
  Beta virt. eigenvalues --    0.20503   0.21390   0.22384   0.22593   0.22760
  Beta virt. eigenvalues --    0.23048   0.23743   0.24159   0.24680   0.24865
  Beta virt. eigenvalues --    0.25205   0.26084   0.26848   0.27107   0.27711
  Beta virt. eigenvalues --    0.28136   0.28503   0.28965   0.29534   0.29852
  Beta virt. eigenvalues --    0.30350   0.30824   0.31126   0.31275   0.31321
  Beta virt. eigenvalues --    0.32442   0.32532   0.33115   0.33410   0.33704
  Beta virt. eigenvalues --    0.33923   0.34390   0.34520   0.35447   0.35934
  Beta virt. eigenvalues --    0.36640   0.37397   0.37552   0.37843   0.38099
  Beta virt. eigenvalues --    0.38826   0.38836   0.39276   0.39726   0.40125
  Beta virt. eigenvalues --    0.40158   0.40448   0.40878   0.41487   0.41660
  Beta virt. eigenvalues --    0.42196   0.42704   0.42969   0.43390   0.43721
  Beta virt. eigenvalues --    0.44533   0.44966   0.45028   0.45288   0.46435
  Beta virt. eigenvalues --    0.46772   0.47739   0.48816   0.49415   0.49589
  Beta virt. eigenvalues --    0.50033   0.50587   0.51554   0.52226   0.52454
  Beta virt. eigenvalues --    0.53131   0.53410   0.54246   0.54345   0.54985
  Beta virt. eigenvalues --    0.55096   0.55469   0.56446   0.56693   0.56930
  Beta virt. eigenvalues --    0.58267   0.58409   0.58577   0.59951   0.60678
  Beta virt. eigenvalues --    0.61320   0.62258   0.62586   0.63105   0.64211
  Beta virt. eigenvalues --    0.64543   0.65543   0.66410   0.67371   0.67924
  Beta virt. eigenvalues --    0.68276   0.68881   0.69386   0.69979   0.70463
  Beta virt. eigenvalues --    0.71054   0.71301   0.71637   0.71938   0.72463
  Beta virt. eigenvalues --    0.72842   0.73307   0.73616   0.74215   0.74363
  Beta virt. eigenvalues --    0.75411   0.75651   0.75949   0.76234   0.76991
  Beta virt. eigenvalues --    0.77214   0.78161   0.78827   0.79199   0.80888
  Beta virt. eigenvalues --    0.81247   0.81843   0.82586   0.82904   0.83500
  Beta virt. eigenvalues --    0.84515   0.85456   0.86203   0.88062   0.88531
  Beta virt. eigenvalues --    0.89231   0.90341   0.90613   0.91216   0.91655
  Beta virt. eigenvalues --    0.92279   0.93287   0.93541   0.94469   0.94586
  Beta virt. eigenvalues --    0.95444   0.95850   0.96082   0.97205   0.97747
  Beta virt. eigenvalues --    0.98517   0.99325   0.99881   1.00597   1.01507
  Beta virt. eigenvalues --    1.01751   1.03455   1.03695   1.04428   1.04994
  Beta virt. eigenvalues --    1.05633   1.06254   1.06546   1.07017   1.07996
  Beta virt. eigenvalues --    1.08460   1.08951   1.09550   1.10582   1.11350
  Beta virt. eigenvalues --    1.12173   1.13205   1.14170   1.15683   1.16472
  Beta virt. eigenvalues --    1.18542   1.19534   1.20613   1.20735   1.21379
  Beta virt. eigenvalues --    1.23213   1.23241   1.24605   1.25380   1.25888
  Beta virt. eigenvalues --    1.26026   1.27227   1.28150   1.28912   1.31333
  Beta virt. eigenvalues --    1.32048   1.33001   1.33596   1.34977   1.35939
  Beta virt. eigenvalues --    1.37164   1.38322   1.39272   1.40734   1.41379
  Beta virt. eigenvalues --    1.41904   1.43708   1.44053   1.45144   1.45759
  Beta virt. eigenvalues --    1.46467   1.46785   1.47027   1.48548   1.49252
  Beta virt. eigenvalues --    1.49828   1.50134   1.51278   1.52556   1.53399
  Beta virt. eigenvalues --    1.54290   1.54507   1.55029   1.55654   1.57647
  Beta virt. eigenvalues --    1.58031   1.59218   1.59602   1.60429   1.60862
  Beta virt. eigenvalues --    1.61685   1.62740   1.63587   1.64170   1.64304
  Beta virt. eigenvalues --    1.64457   1.65073   1.67765   1.68621   1.69596
  Beta virt. eigenvalues --    1.69913   1.70592   1.71385   1.71847   1.72751
  Beta virt. eigenvalues --    1.73341   1.74242   1.74712   1.75458   1.76113
  Beta virt. eigenvalues --    1.76369   1.78540   1.78947   1.79340   1.80464
  Beta virt. eigenvalues --    1.80658   1.81503   1.82389   1.82669   1.84085
  Beta virt. eigenvalues --    1.84944   1.86925   1.87537   1.87881   1.88567
  Beta virt. eigenvalues --    1.89421   1.90547   1.92223   1.92923   1.93307
  Beta virt. eigenvalues --    1.94190   1.94546   1.95287   1.96063   1.97365
  Beta virt. eigenvalues --    1.97912   1.98357   1.99031   2.00135   2.00520
  Beta virt. eigenvalues --    2.00936   2.01743   2.02720   2.03299   2.03933
  Beta virt. eigenvalues --    2.05119   2.05523   2.06339   2.07475   2.07653
  Beta virt. eigenvalues --    2.08254   2.09127   2.10074   2.10344   2.11007
  Beta virt. eigenvalues --    2.11474   2.12122   2.12146   2.13321   2.13712
  Beta virt. eigenvalues --    2.14829   2.15169   2.15717   2.16471   2.17818
  Beta virt. eigenvalues --    2.18860   2.19386   2.19630   2.20013   2.20388
  Beta virt. eigenvalues --    2.21975   2.22598   2.23591   2.24027   2.24683
  Beta virt. eigenvalues --    2.25147   2.26063   2.26454   2.26992   2.27720
  Beta virt. eigenvalues --    2.28934   2.29261   2.31253   2.31927   2.32667
  Beta virt. eigenvalues --    2.33569   2.34147   2.34970   2.35186   2.36574
  Beta virt. eigenvalues --    2.38039   2.39817   2.41473   2.42535   2.44084
  Beta virt. eigenvalues --    2.45342   2.46406   2.46902   2.47581   2.48544
  Beta virt. eigenvalues --    2.48918   2.49665   2.51201   2.52182   2.54666
  Beta virt. eigenvalues --    2.55930   2.57419   2.58924   2.59137   2.60256
  Beta virt. eigenvalues --    2.63064   2.64326   2.64845   2.66060   2.66434
  Beta virt. eigenvalues --    2.66865   2.67941   2.68338   2.69288   2.69393
  Beta virt. eigenvalues --    2.70540   2.72091   2.72524   2.73194   2.73885
  Beta virt. eigenvalues --    2.74841   2.75602   2.78024   2.81990   2.82535
  Beta virt. eigenvalues --    2.83267   2.83881   2.85176   2.86731   2.86943
  Beta virt. eigenvalues --    2.89408   2.90240   2.92507   2.93093   2.94040
  Beta virt. eigenvalues --    2.95220   2.96008   2.96402   2.97764   2.98177
  Beta virt. eigenvalues --    2.98433   2.98906   2.99702   3.00812   3.02533
  Beta virt. eigenvalues --    3.03585   3.04137   3.05127   3.06073   3.06099
  Beta virt. eigenvalues --    3.06799   3.07529   3.07730   3.08929   3.09370
  Beta virt. eigenvalues --    3.10551   3.11392   3.11882   3.12702   3.12949
  Beta virt. eigenvalues --    3.13912   3.14217   3.14557   3.14971   3.15654
  Beta virt. eigenvalues --    3.16244   3.16704   3.17198   3.17460   3.18031
  Beta virt. eigenvalues --    3.19406   3.19895   3.20778   3.21986   3.22410
  Beta virt. eigenvalues --    3.23695   3.24002   3.25380   3.25590   3.26543
  Beta virt. eigenvalues --    3.26858   3.27929   3.28767   3.28904   3.31117
  Beta virt. eigenvalues --    3.31542   3.32684   3.33923   3.34086   3.38102
  Beta virt. eigenvalues --    3.38426   3.39171   3.41875   3.44349   3.44500
  Beta virt. eigenvalues --    3.45970   3.46314   3.47237   3.47319   3.47638
  Beta virt. eigenvalues --    3.48334   3.49048   3.49522   3.49615   3.50230
  Beta virt. eigenvalues --    3.50729   3.51320   3.51596   3.52166   3.53182
  Beta virt. eigenvalues --    3.54252   3.54923   3.56038   3.56534   3.56947
  Beta virt. eigenvalues --    3.59878   3.61149   3.62223   3.62728   3.63252
  Beta virt. eigenvalues --    3.64271   3.64781   3.65921   3.67179   3.67485
  Beta virt. eigenvalues --    3.68229   3.69454   3.70372   3.72331   3.72584
  Beta virt. eigenvalues --    3.73256   3.73875   3.74339   3.75943   3.76205
  Beta virt. eigenvalues --    3.77693   3.78090   3.79411   3.80027   3.81197
  Beta virt. eigenvalues --    3.82115   3.82876   3.83535   3.83936   3.85647
  Beta virt. eigenvalues --    3.86038   3.87685   3.90227   3.91010   3.91751
  Beta virt. eigenvalues --    3.93756   3.94953   3.95553   3.97761   3.99865
  Beta virt. eigenvalues --    4.01060   4.01561   4.02713   4.06135   4.09535
  Beta virt. eigenvalues --    4.09733   4.10549   4.10667   4.11390   4.11703
  Beta virt. eigenvalues --    4.12094   4.13486   4.14668   4.15854   4.16306
  Beta virt. eigenvalues --    4.16733   4.18932   4.19878   4.20957   4.22202
  Beta virt. eigenvalues --    4.23145   4.23427   4.23715   4.24350   4.24868
  Beta virt. eigenvalues --    4.25202   4.25638   4.27151   4.28647   4.29745
  Beta virt. eigenvalues --    4.32739   4.33067   4.36764   4.38820   4.45071
  Beta virt. eigenvalues --    4.46993   4.47561   4.48118   4.48733   4.50295
  Beta virt. eigenvalues --    4.51239   4.52666   4.53283   4.55433   4.56602
  Beta virt. eigenvalues --    4.58620   4.59458   4.60559   4.61573   4.63579
  Beta virt. eigenvalues --    4.63689   4.64908   4.67658   5.09458   5.09497
  Beta virt. eigenvalues --    5.12147   5.15758   5.17419   5.18126   5.18826
  Beta virt. eigenvalues --    5.23496   5.24013   5.24127   5.24710   5.24963
  Beta virt. eigenvalues --    5.25273   5.25444   5.25656   5.26100   5.26383
  Beta virt. eigenvalues --    5.26636   5.26821   5.27379   5.27882   5.28426
  Beta virt. eigenvalues --    5.28735   5.29637   5.29881   5.30016   5.30604
  Beta virt. eigenvalues --    5.31187   5.31756   5.32163   5.33034   5.33293
  Beta virt. eigenvalues --    5.33814   5.33977   5.34429   5.34433   5.35404
  Beta virt. eigenvalues --    5.35689   5.36492   5.36939   5.38668   5.39701
  Beta virt. eigenvalues --    5.41288   5.41678   5.43267   5.43654   5.44256
  Beta virt. eigenvalues --    5.44736   5.45649   5.45997   5.48484   5.49047
  Beta virt. eigenvalues --    5.50963   5.51950   5.52635   5.53175   5.54062
  Beta virt. eigenvalues --    5.55039   5.58664   5.59124   5.59439   5.59846
  Beta virt. eigenvalues --    5.60327   5.61302   5.62184   5.63103   5.63810
  Beta virt. eigenvalues --    5.64421   5.65505   5.67202   5.69192   5.69750
  Beta virt. eigenvalues --    5.69893   5.70318   5.70621   5.70917   5.88824
  Beta virt. eigenvalues --    5.89752   5.89911   5.94359   5.94802   5.96188
  Beta virt. eigenvalues --    6.00101   6.06036   6.06681   6.08389   6.08883
  Beta virt. eigenvalues --    6.09722   6.09942   6.11170   6.12086   6.16986
  Beta virt. eigenvalues --    6.17079   6.17356   6.17888   6.18703   6.18949
  Beta virt. eigenvalues --    6.19952   6.22029   6.22232   6.23155   6.23738
  Beta virt. eigenvalues --    6.28586   6.32898   6.36301   6.37079   6.42446
  Beta virt. eigenvalues --    6.42599   6.43178   6.43473   6.44415   6.44947
  Beta virt. eigenvalues --    6.45448   6.48344   6.48842   6.49667   6.50043
  Beta virt. eigenvalues --    6.50307   6.50735   6.51166   6.51886   6.52876
  Beta virt. eigenvalues --    6.53606   6.53762   6.55263   6.55441   6.56165
  Beta virt. eigenvalues --    6.57484   6.57870   6.58431   6.59853   6.60289
  Beta virt. eigenvalues --    6.61666   6.63275   6.63742   6.64501   6.64845
  Beta virt. eigenvalues --    6.66334   6.66888   6.67626   6.67736   6.68986
  Beta virt. eigenvalues --    6.69442   6.70762   6.72308   6.74060   6.74573
  Beta virt. eigenvalues --    6.76152   6.76499   6.77608   6.80546   6.82138
  Beta virt. eigenvalues --    6.84975   6.85977   6.87469   6.88399   6.88826
  Beta virt. eigenvalues --    6.88977   6.90315   6.91332   6.92132   6.92584
  Beta virt. eigenvalues --    6.93684   6.96085   6.97638   6.98288   6.98738
  Beta virt. eigenvalues --    6.99683   7.00623   7.01674   7.04480   7.05065
  Beta virt. eigenvalues --    7.06621   7.07505   7.08501   7.10019   7.11121
  Beta virt. eigenvalues --    7.11452   7.12146   7.13679   7.14323   7.16665
  Beta virt. eigenvalues --    7.23762   7.24479   7.25286   7.25500   7.26947
  Beta virt. eigenvalues --    7.27267   7.27481   7.28342   7.28704   7.29567
  Beta virt. eigenvalues --    7.30142   7.30476   7.31634   7.34506   7.34924
  Beta virt. eigenvalues --    7.37551   7.38303   7.41883   7.48270  23.21920
  Beta virt. eigenvalues --   23.22257  23.23406  23.24462  23.25461  23.28195
  Beta virt. eigenvalues --   31.50585  32.25581  43.68674  43.69864  43.75135
  Beta virt. eigenvalues --   43.83208  43.92355  43.97138  43.97508  44.09697
  Beta virt. eigenvalues --   44.10932  44.15696  44.15866  44.18079  44.19625
  Beta virt. eigenvalues --   44.21758  44.31371  44.32774
          Condensed to atoms (all electrons):
               1          2          3          4          5          6
     1  O    8.419697  -0.101633   0.341626  -0.065817  -0.000003  -0.001381
     2  O   -0.101633   8.246526   0.385170  -0.055580  -0.000001  -0.000006
     3  C    0.341626   0.385170   4.179030   0.410896  -0.000022   0.000804
     4  H   -0.065817  -0.055580   0.410896   0.662260  -0.000000   0.000005
     5  O   -0.000003  -0.000001  -0.000022  -0.000000   8.375609  -0.102364
     6  O   -0.001381  -0.000006   0.000804   0.000005  -0.102364   8.330041
     7  C    0.000797  -0.000029  -0.000034   0.000001   0.386473   0.374043
     8  H    0.000005  -0.000000   0.000000   0.000000  -0.059008  -0.061935
     9  O    0.000027  -0.023334   0.000974  -0.000092  -0.000003  -0.000001
    10  O   -0.028492   0.000051   0.000088  -0.000002   0.000792  -0.035756
    11  O    0.000078  -0.000012   0.000003   0.000000  -0.033468   0.000919
    12  C   -0.000440  -0.000020   0.000680   0.000029   0.000376   0.000840
    13  H   -0.000119   0.000000   0.000051   0.000002  -0.000217  -0.000141
    14  O    0.000599  -0.023477   0.002564  -0.000101  -0.000010   0.000165
    15  O   -0.030802  -0.001431   0.003292  -0.000187   0.000004  -0.024864
    16  C    0.000286   0.007440  -0.002487   0.000326  -0.000023  -0.002182
    17  H   -0.000078  -0.000095   0.000348  -0.000005   0.000001  -0.000195
    18  Fe  -0.006237   0.127396  -0.016471   0.002567   0.000384   0.000571
    19  O   -0.000003  -0.001123   0.000231   0.000001   0.000006  -0.000010
    20  Fe   0.000271   0.000074  -0.000285  -0.000021   0.107617  -0.004521
    21  O   -0.000001  -0.000001  -0.000002  -0.000000  -0.030440   0.000053
    22  O   -0.000016  -0.000048  -0.000071  -0.000001  -0.001198  -0.000002
    23  Fe   0.124984   0.001035  -0.005616   0.002153  -0.004772   0.114536
    24  O   -0.016114  -0.022775  -0.001443  -0.000492  -0.019721  -0.020836
    25  C   -0.000001   0.000234  -0.000025  -0.000000   0.000946  -0.000052
    26  H   -0.000000   0.000001  -0.000000   0.000000   0.000038  -0.000001
    27  C   -0.000022   0.001634   0.000384   0.000108   0.000607  -0.000017
    28  H    0.000001  -0.000020   0.000038  -0.000000   0.000005  -0.000000
    29  N    0.000000  -0.000006  -0.000003  -0.000000  -0.000000  -0.000000
    30  N    0.000000  -0.000001  -0.000000  -0.000000   0.000000   0.000000
    31  O   -0.000054  -0.027216   0.001056   0.000095  -0.000000  -0.000000
    32  O   -0.000000  -0.000000  -0.000000  -0.000000  -0.031012  -0.000084
    33  H   -0.000000  -0.000000   0.000000   0.000000   0.001387  -0.000001
    34  H   -0.000000   0.000000   0.000000   0.000000   0.007345   0.000113
    35  O   -0.037963  -0.000080   0.002554   0.000101  -0.000016  -0.022218
    36  H    0.000979  -0.000001   0.000012   0.000006  -0.000054   0.001187
    37  H    0.009028   0.000163   0.001773  -0.000162  -0.000007   0.000646
               7          8          9         10         11         12
     1  O    0.000797   0.000005   0.000027  -0.028492   0.000078  -0.000440
     2  O   -0.000029  -0.000000  -0.023334   0.000051  -0.000012  -0.000020
     3  C   -0.000034   0.000000   0.000974   0.000088   0.000003   0.000680
     4  H    0.000001   0.000000  -0.000092  -0.000002   0.000000   0.000029
     5  O    0.386473  -0.059008  -0.000003   0.000792  -0.033468   0.000376
     6  O    0.374043  -0.061935  -0.000001  -0.035756   0.000919   0.000840
     7  C    4.141187   0.413873  -0.000009   0.000291   0.000313  -0.003547
     8  H    0.413873   0.658292  -0.000000  -0.000270  -0.000116   0.000208
     9  O   -0.000009  -0.000000   8.267308  -0.000025   0.000148  -0.000049
    10  O    0.000291  -0.000270  -0.000025   8.379509  -0.114929   0.400662
    11  O    0.000313  -0.000116   0.000148  -0.114929   8.393313   0.389655
    12  C   -0.003547   0.000208  -0.000049   0.400662   0.389655   4.090390
    13  H    0.000130  -0.000010  -0.000003  -0.058474  -0.060898   0.410496
    14  O   -0.000140  -0.000003  -0.001941  -0.000003  -0.000001  -0.000006
    15  O   -0.000303  -0.000009  -0.000013  -0.001372  -0.000003   0.000507
    16  C    0.000949   0.000048   0.000635   0.000649  -0.000010  -0.000118
    17  H    0.000089   0.000003   0.000002   0.000005  -0.000000   0.000000
    18  Fe  -0.000087   0.000012   0.124533   0.000550   0.000670  -0.000150
    19  O   -0.000068  -0.000000  -0.023083  -0.000001   0.000005  -0.000029
    20  Fe  -0.008068   0.001833  -0.003993  -0.004570   0.097139   0.000249
    21  O    0.000964  -0.000094   0.000509  -0.000005  -0.001395   0.000615
    22  O    0.000526   0.000004  -0.083675  -0.000048  -0.029021   0.000562
    23  Fe  -0.010390   0.002413   0.000345   0.104226  -0.005326  -0.004803
    24  O    0.004345  -0.000280  -0.021653  -0.020827  -0.018541   0.002692
    25  C    0.000387   0.000046   0.002553  -0.000027   0.000842  -0.000067
    26  H    0.000019   0.000001  -0.000087  -0.000000   0.000004   0.000001
    27  C   -0.000031   0.000001   0.348319   0.000148  -0.001617   0.000446
    28  H    0.000001   0.000000  -0.060267   0.000004  -0.000149   0.000077
    29  N   -0.000000  -0.000000  -0.002713  -0.000000  -0.000000  -0.000000
    30  N   -0.000000   0.000000   0.000008  -0.000000   0.000000   0.000000
    31  O    0.000001  -0.000000  -0.027817  -0.000000  -0.000000   0.000001
    32  O    0.001580   0.000062  -0.000009  -0.000056  -0.031814   0.001015
    33  H    0.000039   0.000011  -0.000002   0.000145   0.005221   0.000300
    34  H    0.001165  -0.000172  -0.000001  -0.000017   0.000830  -0.000042
    35  O   -0.001781  -0.000130   0.000000  -0.031246  -0.000108   0.001813
    36  H    0.000623   0.000048  -0.000000   0.005291   0.000108   0.000277
    37  H    0.000144   0.000004   0.000000   0.001056   0.000010  -0.000068
              13         14         15         16         17         18
     1  O   -0.000119   0.000599  -0.030802   0.000286  -0.000078  -0.006237
     2  O    0.000000  -0.023477  -0.001431   0.007440  -0.000095   0.127396
     3  C    0.000051   0.002564   0.003292  -0.002487   0.000348  -0.016471
     4  H    0.000002  -0.000101  -0.000187   0.000326  -0.000005   0.002567
     5  O   -0.000217  -0.000010   0.000004  -0.000023   0.000001   0.000384
     6  O   -0.000141   0.000165  -0.024864  -0.002182  -0.000195   0.000571
     7  C    0.000130  -0.000140  -0.000303   0.000949   0.000089  -0.000087
     8  H   -0.000010  -0.000003  -0.000009   0.000048   0.000003   0.000012
     9  O   -0.000003  -0.001941  -0.000013   0.000635   0.000002   0.124533
    10  O   -0.058474  -0.000003  -0.001372   0.000649   0.000005   0.000550
    11  O   -0.060898  -0.000001  -0.000003  -0.000010  -0.000000   0.000670
    12  C    0.410496  -0.000006   0.000507  -0.000118   0.000000  -0.000150
    13  H    0.665115  -0.000000   0.000003  -0.000000   0.000000   0.000003
    14  O   -0.000000   8.242125  -0.082792   0.360060  -0.059769   0.125037
    15  O    0.000003  -0.082792   8.326474   0.334790  -0.061956  -0.005447
    16  C   -0.000000   0.360060   0.334790   4.226334   0.412979  -0.009936
    17  H    0.000000  -0.059769  -0.061956   0.412979   0.651376   0.002824
    18  Fe   0.000003   0.125037  -0.005447  -0.009936   0.002824  24.249295
    19  O   -0.000000  -0.022804  -0.000031   0.001130  -0.000021   0.122732
    20  Fe   0.002469   0.000234   0.000143   0.000504   0.000071   0.016969
    21  O    0.000004   0.000031  -0.000017  -0.000052   0.000000  -0.005615
    22  O   -0.000013  -0.000010  -0.000000  -0.000018  -0.000000  -0.006290
    23  Fe   0.002133  -0.002998   0.147052  -0.017756   0.001784   0.015244
    24  O   -0.000307  -0.021896  -0.026858   0.002072  -0.000493   0.077404
    25  C    0.000001   0.001462  -0.000072   0.000444   0.000053  -0.013373
    26  H    0.000000  -0.000098  -0.000001   0.000120   0.000000   0.001531
    27  C    0.000030   0.000614  -0.000026   0.000059   0.000002  -0.006970
    28  H    0.000002   0.000002  -0.000000   0.000002   0.000000   0.002700
    29  N   -0.000000  -0.000005  -0.000000   0.000000  -0.000000  -0.000185
    30  N    0.000000  -0.000011   0.000000  -0.000003  -0.000000  -0.000070
    31  O   -0.000000  -0.027116  -0.000006   0.000907  -0.000019   0.198854
    32  O   -0.000091  -0.000000   0.000000  -0.000002  -0.000000   0.000062
    33  H   -0.000268  -0.000000  -0.000000   0.000000   0.000000  -0.000018
    34  H    0.000008   0.000000  -0.000000   0.000000  -0.000000  -0.000015
    35  O    0.000044  -0.000003  -0.013290  -0.001630  -0.000022   0.000237
    36  H   -0.000199  -0.000002   0.000292   0.000036  -0.000001  -0.000008
    37  H   -0.000009  -0.000012   0.000179   0.000034   0.000013  -0.000006
              19         20         21         22         23         24
     1  O   -0.000003   0.000271  -0.000001  -0.000016   0.124984  -0.016114
     2  O   -0.001123   0.000074  -0.000001  -0.000048   0.001035  -0.022775
     3  C    0.000231  -0.000285  -0.000002  -0.000071  -0.005616  -0.001443
     4  H    0.000001  -0.000021  -0.000000  -0.000001   0.002153  -0.000492
     5  O    0.000006   0.107617  -0.030440  -0.001198  -0.004772  -0.019721
     6  O   -0.000010  -0.004521   0.000053  -0.000002   0.114536  -0.020836
     7  C   -0.000068  -0.008068   0.000964   0.000526  -0.010390   0.004345
     8  H   -0.000000   0.001833  -0.000094   0.000004   0.002413  -0.000280
     9  O   -0.023083  -0.003993   0.000509  -0.083675   0.000345  -0.021653
    10  O   -0.000001  -0.004570  -0.000005  -0.000048   0.104226  -0.020827
    11  O    0.000005   0.097139  -0.001395  -0.029021  -0.005326  -0.018541
    12  C   -0.000029   0.000249   0.000615   0.000562  -0.004803   0.002692
    13  H   -0.000000   0.002469   0.000004  -0.000013   0.002133  -0.000307
    14  O   -0.022804   0.000234   0.000031  -0.000010  -0.002998  -0.021896
    15  O   -0.000031   0.000143  -0.000017  -0.000000   0.147052  -0.026858
    16  C    0.001130   0.000504  -0.000052  -0.000018  -0.017756   0.002072
    17  H   -0.000021   0.000071   0.000000  -0.000000   0.001784  -0.000493
    18  Fe   0.122732   0.016969  -0.005615  -0.006290   0.015244   0.077404
    19  O    8.283777  -0.001664  -0.095746  -0.001694  -0.000243  -0.022783
    20  Fe  -0.001664  24.327335   0.138609   0.147527   0.010708   0.108968
    21  O   -0.095746   0.138609   8.350199  -0.025286   0.000736  -0.019976
    22  O   -0.001694   0.147527  -0.025286   8.333654  -0.000099  -0.026043
    23  Fe  -0.000243   0.010708   0.000736  -0.000099  24.329731   0.110796
    24  O   -0.022783   0.108968  -0.019976  -0.026043   0.110796   8.686292
    25  C    0.371780  -0.008160   0.331180   0.000424   0.000178  -0.000043
    26  H   -0.056288   0.002807  -0.065127  -0.000300   0.000006  -0.000515
    27  C    0.007611  -0.018876  -0.000200   0.334420   0.000305   0.001441
    28  H   -0.000024   0.001752  -0.000102  -0.061300   0.000037  -0.000520
    29  N   -0.005507   0.000797  -0.000005   0.000267   0.000003  -0.000008
    30  N    0.000252   0.000026   0.000005  -0.000005   0.000001  -0.000001
    31  O   -0.026762   0.000740  -0.000064  -0.000021   0.000521  -0.008697
    32  O   -0.000048   0.098331  -0.022433  -0.017072   0.000448  -0.002010
    33  H   -0.000006  -0.003635   0.000509   0.000534  -0.000044   0.000142
    34  H    0.000001  -0.005378   0.000014   0.000443  -0.000038   0.000128
    35  O    0.000000   0.000094  -0.000000   0.000000   0.101301  -0.002012
    36  H    0.000000  -0.000054  -0.000000  -0.000000  -0.001698   0.000114
    37  H    0.000000  -0.000050  -0.000000   0.000000  -0.005709   0.000137
              25         26         27         28         29         30
     1  O   -0.000001  -0.000000  -0.000022   0.000001   0.000000   0.000000
     2  O    0.000234   0.000001   0.001634  -0.000020  -0.000006  -0.000001
     3  C   -0.000025  -0.000000   0.000384   0.000038  -0.000003  -0.000000
     4  H   -0.000000   0.000000   0.000108  -0.000000  -0.000000  -0.000000
     5  O    0.000946   0.000038   0.000607   0.000005  -0.000000   0.000000
     6  O   -0.000052  -0.000001  -0.000017  -0.000000  -0.000000   0.000000
     7  C    0.000387   0.000019  -0.000031   0.000001  -0.000000  -0.000000
     8  H    0.000046   0.000001   0.000001   0.000000  -0.000000   0.000000
     9  O    0.002553  -0.000087   0.348319  -0.060267  -0.002713   0.000008
    10  O   -0.000027  -0.000000   0.000148   0.000004  -0.000000  -0.000000
    11  O    0.000842   0.000004  -0.001617  -0.000149  -0.000000   0.000000
    12  C   -0.000067   0.000001   0.000446   0.000077  -0.000000   0.000000
    13  H    0.000001   0.000000   0.000030   0.000002  -0.000000   0.000000
    14  O    0.001462  -0.000098   0.000614   0.000002  -0.000005  -0.000011
    15  O   -0.000072  -0.000001  -0.000026  -0.000000  -0.000000   0.000000
    16  C    0.000444   0.000120   0.000059   0.000002   0.000000  -0.000003
    17  H    0.000053   0.000000   0.000002   0.000000  -0.000000  -0.000000
    18  Fe  -0.013373   0.001531  -0.006970   0.002700  -0.000185  -0.000070
    19  O    0.371780  -0.056288   0.007611  -0.000024  -0.005507   0.000252
    20  Fe  -0.008160   0.002807  -0.018876   0.001752   0.000797   0.000026
    21  O    0.331180  -0.065127  -0.000200  -0.000102  -0.000005   0.000005
    22  O    0.000424  -0.000300   0.334420  -0.061300   0.000267  -0.000005
    23  Fe   0.000178   0.000006   0.000305   0.000037   0.000003   0.000001
    24  O   -0.000043  -0.000515   0.001441  -0.000520  -0.000008  -0.000001
    25  C    4.205460   0.414514  -0.000828   0.000420  -0.000926   0.000132
    26  H    0.414514   0.655103   0.000446  -0.000001   0.000132   0.000072
    27  C   -0.000828   0.000446   4.231206   0.413353  -0.010614  -0.000033
    28  H    0.000420  -0.000001   0.413353   0.651235   0.001791  -0.000059
    29  N   -0.000926   0.000132  -0.010614   0.001791   6.618733   0.390012
    30  N    0.000132   0.000072  -0.000033  -0.000059   0.390012   6.626477
    31  O    0.001518   0.000081   0.001060   0.000052   0.001018  -0.003542
    32  O    0.000346   0.000009  -0.002167  -0.000084   0.000000   0.000000
    33  H   -0.000053  -0.000002   0.000275   0.000013  -0.000000   0.000000
    34  H   -0.000111   0.000001   0.000096   0.000001  -0.000000  -0.000000
    35  O   -0.000000  -0.000000  -0.000003  -0.000000  -0.000000   0.000000
    36  H    0.000000   0.000000   0.000000  -0.000000   0.000000  -0.000000
    37  H    0.000000   0.000000   0.000001   0.000000   0.000000  -0.000000
              31         32         33         34         35         36
     1  O   -0.000054  -0.000000  -0.000000  -0.000000  -0.037963   0.000979
     2  O   -0.027216  -0.000000  -0.000000   0.000000  -0.000080  -0.000001
     3  C    0.001056  -0.000000   0.000000   0.000000   0.002554   0.000012
     4  H    0.000095  -0.000000   0.000000   0.000000   0.000101   0.000006
     5  O   -0.000000  -0.031012   0.001387   0.007345  -0.000016  -0.000054
     6  O   -0.000000  -0.000084  -0.000001   0.000113  -0.022218   0.001187
     7  C    0.000001   0.001580   0.000039   0.001165  -0.001781   0.000623
     8  H   -0.000000   0.000062   0.000011  -0.000172  -0.000130   0.000048
     9  O   -0.027817  -0.000009  -0.000002  -0.000001   0.000000  -0.000000
    10  O   -0.000000  -0.000056   0.000145  -0.000017  -0.031246   0.005291
    11  O   -0.000000  -0.031814   0.005221   0.000830  -0.000108   0.000108
    12  C    0.000001   0.001015   0.000300  -0.000042   0.001813   0.000277
    13  H   -0.000000  -0.000091  -0.000268   0.000008   0.000044  -0.000199
    14  O   -0.027116  -0.000000  -0.000000   0.000000  -0.000003  -0.000002
    15  O   -0.000006   0.000000  -0.000000  -0.000000  -0.013290   0.000292
    16  C    0.000907  -0.000002   0.000000   0.000000  -0.001630   0.000036
    17  H   -0.000019  -0.000000   0.000000  -0.000000  -0.000022  -0.000001
    18  Fe   0.198854   0.000062  -0.000018  -0.000015   0.000237  -0.000008
    19  O   -0.026762  -0.000048  -0.000006   0.000001   0.000000   0.000000
    20  Fe   0.000740   0.098331  -0.003635  -0.005378   0.000094  -0.000054
    21  O   -0.000064  -0.022433   0.000509   0.000014  -0.000000  -0.000000
    22  O   -0.000021  -0.017072   0.000534   0.000443   0.000000  -0.000000
    23  Fe   0.000521   0.000448  -0.000044  -0.000038   0.101301  -0.001698
    24  O   -0.008697  -0.002010   0.000142   0.000128  -0.002012   0.000114
    25  C    0.001518   0.000346  -0.000053  -0.000111  -0.000000   0.000000
    26  H    0.000081   0.000009  -0.000002   0.000001  -0.000000   0.000000
    27  C    0.001060  -0.002167   0.000275   0.000096  -0.000003   0.000000
    28  H    0.000052  -0.000084   0.000013   0.000001  -0.000000  -0.000000
    29  N    0.001018   0.000000  -0.000000  -0.000000  -0.000000   0.000000
    30  N   -0.003542   0.000000   0.000000  -0.000000   0.000000  -0.000000
    31  O    8.352926  -0.000000   0.000000   0.000000  -0.000000  -0.000000
    32  O   -0.000000   7.950352   0.301671   0.302004   0.000000   0.000000
    33  H    0.000000   0.301671   0.334189  -0.010623   0.000000  -0.000000
    34  H    0.000000   0.302004  -0.010623   0.331794   0.000000  -0.000000
    35  O   -0.000000   0.000000   0.000000   0.000000   7.949196   0.298208
    36  H   -0.000000   0.000000  -0.000000  -0.000000   0.298208   0.339204
    37  H    0.000000  -0.000000   0.000000   0.000000   0.296092  -0.009201
              37
     1  O    0.009028
     2  O    0.000163
     3  C    0.001773
     4  H   -0.000162
     5  O   -0.000007
     6  O    0.000646
     7  C    0.000144
     8  H    0.000004
     9  O    0.000000
    10  O    0.001056
    11  O    0.000010
    12  C   -0.000068
    13  H   -0.000009
    14  O   -0.000012
    15  O    0.000179
    16  C    0.000034
    17  H    0.000013
    18  Fe  -0.000006
    19  O    0.000000
    20  Fe  -0.000050
    21  O   -0.000000
    22  O    0.000000
    23  Fe  -0.005709
    24  O    0.000137
    25  C    0.000000
    26  H    0.000000
    27  C    0.000001
    28  H    0.000000
    29  N    0.000000
    30  N   -0.000000
    31  O    0.000000
    32  O   -0.000000
    33  H    0.000000
    34  H    0.000000
    35  O    0.296092
    36  H   -0.009201
    37  H    0.340185
          Atomic-Atomic Spin Densities.
               1          2          3          4          5          6
     1  O   -0.137457  -0.000314   0.000191   0.000870  -0.000003  -0.000753
     2  O   -0.000314   0.076818   0.000546   0.001419  -0.000000  -0.000002
     3  C    0.000191   0.000546   0.006622  -0.002496  -0.000002   0.000138
     4  H    0.000870   0.001419  -0.002496  -0.003612  -0.000000  -0.000003
     5  O   -0.000003  -0.000000  -0.000002  -0.000000   0.094799  -0.000060
     6  O   -0.000753  -0.000002   0.000138  -0.000003  -0.000060  -0.118197
     7  C    0.000097  -0.000001  -0.000013   0.000000   0.004160  -0.001398
     8  H   -0.000005  -0.000000   0.000001  -0.000000   0.000776   0.000808
     9  O    0.000043  -0.003996   0.000637  -0.000064   0.000001   0.000001
    10  O    0.002753  -0.000018  -0.000285   0.000032  -0.000122   0.002330
    11  O   -0.000051  -0.000006  -0.000002  -0.000001  -0.002092  -0.000035
    12  C   -0.000422  -0.000006   0.000118  -0.000005   0.001295  -0.000154
    13  H    0.000047  -0.000000  -0.000020   0.000002  -0.000063   0.000041
    14  O   -0.000016  -0.004027   0.000777  -0.000049  -0.000008  -0.000054
    15  O    0.004294   0.000101  -0.001332   0.000121  -0.000046   0.003844
    16  C   -0.000988   0.000902   0.000157  -0.000009   0.000033  -0.000642
    17  H    0.000033  -0.000121   0.000030  -0.000002  -0.000001   0.000060
    18  Fe   0.001091  -0.037584   0.002404  -0.000119   0.000121   0.000100
    19  O    0.000001   0.000147  -0.000035   0.000001   0.000007   0.000006
    20  Fe   0.000080  -0.000034  -0.000027  -0.000005  -0.042775   0.002485
    21  O   -0.000000  -0.000000  -0.000001   0.000000  -0.003085   0.000053
    22  O    0.000003  -0.000017   0.000006   0.000000   0.000716   0.000004
    23  Fe   0.043984  -0.002642   0.000364  -0.000122  -0.004274   0.040835
    24  O    0.004487   0.001091  -0.001795   0.000099  -0.002772   0.003440
    25  C    0.000002  -0.000018  -0.000002  -0.000000   0.000405  -0.000017
    26  H    0.000000   0.000001  -0.000000   0.000000  -0.000038   0.000001
    27  C   -0.000053   0.000456  -0.000158   0.000023  -0.000093  -0.000003
    28  H    0.000000  -0.000050   0.000006  -0.000004   0.000004   0.000000
    29  N    0.000000  -0.000001  -0.000000   0.000000   0.000000   0.000000
    30  N    0.000000  -0.000000   0.000000  -0.000000  -0.000000   0.000000
    31  O    0.000041  -0.002222   0.000359  -0.000051  -0.000000   0.000000
    32  O    0.000000   0.000000  -0.000000   0.000000  -0.000982   0.000013
    33  H    0.000000   0.000000  -0.000000   0.000000   0.000132  -0.000001
    34  H   -0.000000  -0.000000   0.000000  -0.000000   0.000706   0.000018
    35  O    0.002221  -0.000013  -0.000210   0.000040  -0.000007   0.003076
    36  H   -0.000153   0.000002   0.000014  -0.000004   0.000004  -0.000518
    37  H   -0.000731  -0.000005   0.000021  -0.000038   0.000004   0.000179
               7          8          9         10         11         12
     1  O    0.000097  -0.000005   0.000043   0.002753  -0.000051  -0.000422
     2  O   -0.000001  -0.000000  -0.003996  -0.000018  -0.000006  -0.000006
     3  C   -0.000013   0.000001   0.000637  -0.000285  -0.000002   0.000118
     4  H    0.000000  -0.000000  -0.000064   0.000032  -0.000001  -0.000005
     5  O    0.004160   0.000776   0.000001  -0.000122  -0.002092   0.001295
     6  O   -0.001398   0.000808   0.000001   0.002330  -0.000035  -0.000154
     7  C   -0.003191  -0.000880   0.000002  -0.001208   0.000248   0.000039
     8  H   -0.000880  -0.002202   0.000000   0.000069  -0.000039   0.000036
     9  O    0.000002   0.000000   0.096022   0.000009   0.000021  -0.000045
    10  O   -0.001208   0.000069   0.000009  -0.095901   0.000040  -0.002198
    11  O    0.000248  -0.000039   0.000021   0.000040   0.104275   0.000680
    12  C    0.000039   0.000036  -0.000045  -0.002198   0.000680  -0.000795
    13  H   -0.000005   0.000001   0.000002  -0.000764  -0.000527   0.000998
    14  O    0.000035  -0.000001   0.000129   0.000000  -0.000000   0.000001
    15  O   -0.000294   0.000037   0.000004  -0.000705  -0.000005   0.000125
    16  C   -0.000059  -0.000005  -0.000058   0.000076   0.000001  -0.000005
    17  H   -0.000017   0.000002   0.000002  -0.000004  -0.000000   0.000001
    18  Fe  -0.000095   0.000005  -0.027677  -0.000002   0.000070   0.000028
    19  O   -0.000024   0.000000  -0.003738   0.000001   0.000002   0.000000
    20  Fe  -0.000406   0.000086   0.004059   0.002762  -0.040592  -0.000213
    21  O    0.000543  -0.000053  -0.000075   0.000003   0.000750  -0.000129
    22  O   -0.000103   0.000003  -0.001710   0.000050  -0.003316   0.000184
    23  Fe   0.003240  -0.000065  -0.000151   0.042137  -0.002585  -0.000131
    24  O   -0.000431   0.000030   0.000682   0.003222  -0.003313  -0.000118
    25  C   -0.000036   0.000022   0.000577   0.000002  -0.000121   0.000013
    26  H    0.000001  -0.000002  -0.000048   0.000000   0.000004  -0.000001
    27  C    0.000004  -0.000001  -0.005665  -0.000032   0.000715   0.000009
    28  H   -0.000001   0.000000  -0.001307   0.000001  -0.000079   0.000016
    29  N    0.000000   0.000000   0.000146   0.000000  -0.000000   0.000000
    30  N    0.000000   0.000000   0.000056   0.000000   0.000000  -0.000000
    31  O    0.000000   0.000000  -0.001773  -0.000000  -0.000000   0.000000
    32  O    0.000353  -0.000012   0.000002   0.000027  -0.001586   0.000213
    33  H    0.000042   0.000009  -0.000000   0.000006   0.000866  -0.000059
    34  H   -0.000013   0.000018  -0.000002  -0.000005   0.000148   0.000044
    35  O   -0.000192   0.000042  -0.000000   0.000504  -0.000013  -0.000236
    36  H   -0.000055  -0.000028   0.000000  -0.000617  -0.000018   0.000010
    37  H   -0.000031   0.000001  -0.000000  -0.000235   0.000001   0.000066
              13         14         15         16         17         18
     1  O    0.000047  -0.000016   0.004294  -0.000988   0.000033   0.001091
     2  O   -0.000000  -0.004027   0.000101   0.000902  -0.000121  -0.037584
     3  C   -0.000020   0.000777  -0.001332   0.000157   0.000030   0.002404
     4  H    0.000002  -0.000049   0.000121  -0.000009  -0.000002  -0.000119
     5  O   -0.000063  -0.000008  -0.000046   0.000033  -0.000001   0.000121
     6  O    0.000041  -0.000054   0.003844  -0.000642   0.000060   0.000100
     7  C   -0.000005   0.000035  -0.000294  -0.000059  -0.000017  -0.000095
     8  H    0.000001  -0.000001   0.000037  -0.000005   0.000002   0.000005
     9  O    0.000002   0.000129   0.000004  -0.000058   0.000002  -0.027677
    10  O   -0.000764   0.000000  -0.000705   0.000076  -0.000004  -0.000002
    11  O   -0.000527  -0.000000  -0.000005   0.000001  -0.000000   0.000070
    12  C    0.000998   0.000001   0.000125  -0.000005   0.000001   0.000028
    13  H    0.001161  -0.000000  -0.000003   0.000001  -0.000000   0.000002
    14  O   -0.000000   0.057663   0.000293   0.002085   0.001207  -0.029644
    15  O   -0.000003   0.000293  -0.154513  -0.002879   0.000783   0.001594
    16  C    0.000001   0.002085  -0.002879  -0.002809  -0.000251   0.000583
    17  H   -0.000000   0.001207   0.000783  -0.000251  -0.007473  -0.000148
    18  Fe   0.000002  -0.029644   0.001594   0.000583  -0.000148   3.488885
    19  O    0.000000  -0.003930   0.000018   0.000461  -0.000048  -0.035716
    20  Fe   0.000073   0.000104  -0.000119  -0.000116  -0.000015  -0.001889
    21  O    0.000004  -0.000022  -0.000002   0.000039   0.000003   0.000990
    22  O   -0.000031   0.000002   0.000000  -0.000000   0.000000   0.001218
    23  Fe  -0.000179  -0.004650   0.048664   0.005479  -0.000203  -0.001899
    24  O   -0.000012   0.001522   0.003409   0.000298   0.000216  -0.008860
    25  C   -0.000001   0.000582  -0.000021  -0.000089   0.000015   0.002206
    26  H    0.000000  -0.000082  -0.000000   0.000033  -0.000003  -0.000351
    27  C    0.000007  -0.000056  -0.000002   0.000020  -0.000000   0.000006
    28  H   -0.000003   0.000001  -0.000000  -0.000000   0.000000  -0.000215
    29  N    0.000000  -0.000000  -0.000000   0.000000   0.000000  -0.000731
    30  N    0.000000   0.000000   0.000000  -0.000000   0.000000  -0.000107
    31  O   -0.000000  -0.001535   0.000087   0.000304  -0.000062  -0.140423
    32  O   -0.000034   0.000000   0.000000  -0.000000   0.000000  -0.000039
    33  H    0.000040  -0.000000  -0.000000   0.000000  -0.000000   0.000008
    34  H    0.000013   0.000000   0.000000  -0.000000   0.000000   0.000009
    35  O    0.000023   0.000000   0.002636   0.000042   0.000035   0.000052
    36  H   -0.000023   0.000002   0.000128  -0.000012  -0.000000  -0.000013
    37  H   -0.000006   0.000002  -0.000177  -0.000019  -0.000006  -0.000011
              19         20         21         22         23         24
     1  O    0.000001   0.000080  -0.000000   0.000003   0.043984   0.004487
     2  O    0.000147  -0.000034  -0.000000  -0.000017  -0.002642   0.001091
     3  C   -0.000035  -0.000027  -0.000001   0.000006   0.000364  -0.001795
     4  H    0.000001  -0.000005   0.000000   0.000000  -0.000122   0.000099
     5  O    0.000007  -0.042775  -0.003085   0.000716  -0.004274  -0.002772
     6  O    0.000006   0.002485   0.000053   0.000004   0.040835   0.003440
     7  C   -0.000024  -0.000406   0.000543  -0.000103   0.003240  -0.000431
     8  H    0.000000   0.000086  -0.000053   0.000003  -0.000065   0.000030
     9  O   -0.003738   0.004059  -0.000075  -0.001710  -0.000151   0.000682
    10  O    0.000001   0.002762   0.000003   0.000050   0.042137   0.003222
    11  O    0.000002  -0.040592   0.000750  -0.003316  -0.002585  -0.003313
    12  C    0.000000  -0.000213  -0.000129   0.000184  -0.000131  -0.000118
    13  H    0.000000   0.000073   0.000004  -0.000031  -0.000179  -0.000012
    14  O   -0.003930   0.000104  -0.000022   0.000002  -0.004650   0.001522
    15  O    0.000018  -0.000119  -0.000002   0.000000   0.048664   0.003409
    16  C    0.000461  -0.000116   0.000039  -0.000000   0.005479   0.000298
    17  H   -0.000048  -0.000015   0.000003   0.000000  -0.000203   0.000216
    18  Fe  -0.035716  -0.001889   0.000990   0.001218  -0.001899  -0.008860
    19  O    0.108507   0.002333  -0.000925  -0.000303  -0.000327   0.000975
[...]
     14     -0.201673      0.221806
 
 EQQ= -1.37152148743     EQD=-0.802714088061E-01 EDD= 0.636757782073E-02
 EQQ+QD+DD= -1.44542531842    
 
                          Isotropic Fermi Contact Couplings
        Atom                 a.u.       MegaHertz       Gauss      10(-4) cm-1
     1  O(17)             -0.09041      13.70166       4.88909       4.57038
     2  O(17)              0.08490     -12.86702      -4.59127      -4.29198
     3  C(13)              0.00411       1.15552       0.41232       0.38544
     4  H(1)              -0.00221      -2.47434      -0.88291      -0.82535
     5  O(17)              0.08919     -13.51696      -4.82319      -4.50877
     6  O(17)             -0.09174      13.90369       4.96118       4.63777
     7  C(13)              0.00025       0.07089       0.02529       0.02365
     8  H(1)              -0.00049      -0.55073      -0.19651      -0.18370
     9  O(17)              0.07323     -11.09824      -3.96013      -3.70197
    10  O(17)             -0.09052      13.71782       4.89486       4.57577
    11  O(17)              0.08237     -12.48242      -4.45404      -4.16369
    12  C(13)             -0.00129      -0.36295      -0.12951      -0.12107
    13  H(1)               0.00029       0.32101       0.11455       0.10708
    14  O(17)              0.06273      -9.50715      -3.39239      -3.17124
    15  O(17)             -0.11366      17.22483       6.14625       5.74559
    16  C(13)              0.00140       0.39417       0.14065       0.13148
    17  H(1)              -0.00281      -3.14230      -1.12125      -1.04816
    18  Fe(57)             0.22232       8.06134       2.87649       2.68897
    19  O(17)              0.08931     -13.53543      -4.82978      -4.51493
    20  Fe(57)             0.57422      20.82131       7.42956       6.94524
    21  O(17)              0.10442     -15.82401      -5.64640      -5.27832
    22  O(17)              0.11592     -17.56746      -6.26851      -5.85987
    23  Fe(57)            -0.56217     -20.38411      -7.27356      -6.79941
    24  O(17)              0.00705      -1.06783      -0.38103      -0.35619
    25  C(13)             -0.00367      -1.03186      -0.36819      -0.34419
    26  H(1)               0.00764       8.53240       3.04457       2.84610
    27  C(13)             -0.00216      -0.60708      -0.21662      -0.20250
    28  H(1)               0.00671       7.49768       2.67536       2.50096
    29  N(14)              0.00062       0.04997       0.01783       0.01667
    30  N(14)              0.00094       0.07572       0.02702       0.02526
    31  O(17)              0.12578     -19.06112      -6.80148      -6.35810
    32  O(17)              0.05513      -8.35446      -2.98108      -2.78675
    33  H(1)              -0.00034      -0.37997      -0.13558      -0.12675
    34  H(1)              -0.00029      -0.32845      -0.11720      -0.10956
    35  O(17)             -0.05161       7.82117       2.79079       2.60886
    36  H(1)               0.00029       0.32541       0.11612       0.10855
    37  H(1)               0.00043       0.48354       0.17254       0.16129
 --------------------------------------------------------
       Center         ----  Spin Dipole Couplings  ----
                      3XX-RR        3YY-RR        3ZZ-RR
 --------------------------------------------------------
     1   Atom        0.239118     -0.039968     -0.199150
     2   Atom       -0.127737      0.047613      0.080124
     3   Atom       -0.002043     -0.002134      0.004178
     4   Atom        0.000627      0.000508     -0.001135
     5   Atom        0.078826     -0.124439      0.045614
     6   Atom        0.019429      0.110243     -0.129672
     7   Atom        0.053172     -0.053652      0.000480
     8   Atom        0.019670     -0.017085     -0.002585
     9   Atom       -0.032209     -0.089163      0.121373
    10   Atom        0.058711      0.054850     -0.113561
    11   Atom       -0.038708     -0.144860      0.183567
    12   Atom        0.047552     -0.044677     -0.002875
    13   Atom        0.015585     -0.015960      0.000375
    14   Atom       -0.132595     -0.013606      0.146202
    15   Atom        0.210901     -0.082151     -0.128750
    16   Atom        0.007524      0.008879     -0.016403
    17   Atom        0.004551      0.001878     -0.006429
    18   Atom       -1.643392      0.161291      1.482102
    19   Atom       -0.040294     -0.034762      0.075056
    20   Atom        0.081437     -0.155756      0.074319
    21   Atom       -0.101199     -0.156738      0.257937
    22   Atom        0.065875     -0.149645      0.083770
    23   Atom        0.163429     -0.067810     -0.095619
    24   Atom       -0.276949      0.259849      0.017100
    25   Atom       -0.003887     -0.001262      0.005148
    26   Atom       -0.005493     -0.006804      0.012297
    27   Atom       -0.019815      0.014600      0.005216
    28   Atom       -0.004444     -0.005988      0.010433
    29   Atom        0.017950     -0.005014     -0.012935
    30   Atom        0.015640     -0.005680     -0.009960
    31   Atom       -1.258553      0.148103      1.110450
    32   Atom       -0.132439      0.283052     -0.150613
    33   Atom       -0.031984      0.049507     -0.017523
    34   Atom       -0.025026      0.050759     -0.025732
    35   Atom       -0.193295      0.071856      0.121439
    36   Atom       -0.052801      0.028757      0.024044
    37   Atom       -0.010005      0.000197      0.009808
 --------------------------------------------------------
                        XY            XZ            YZ
 --------------------------------------------------------
     1   Atom        0.006343     -0.016928     -0.277393
     2   Atom       -0.064719     -0.032591      0.179496
     3   Atom       -0.047773     -0.052969     -0.014459
     4   Atom       -0.016646     -0.018241     -0.001443
     5   Atom        0.120791      0.202367      0.108919
     6   Atom       -0.135476     -0.203916     -0.151721
     7   Atom       -0.020485      0.027644     -0.046599
     8   Atom       -0.005400      0.009912     -0.013699
     9   Atom       -0.041824      0.108995     -0.062914
    10   Atom       -0.118489      0.160686      0.147005
    11   Atom        0.101581     -0.204825     -0.116614
    12   Atom       -0.008528     -0.041795      0.042692
    13   Atom       -0.002540     -0.013768      0.013250
    14   Atom       -0.064548      0.066733     -0.152982
    15   Atom        0.014342     -0.066229      0.250047
    16   Atom       -0.037576      0.065695      0.005925
    17   Atom       -0.015040      0.020588      0.002912
    18   Atom       -1.990407      0.103664      0.275404
    19   Atom       -0.095750     -0.116034      0.082444
    20   Atom        0.004829      0.007145      0.007471
    21   Atom       -0.118208     -0.206703      0.140687
    22   Atom       -0.106434      0.212950     -0.152880
    23   Atom       -0.071153     -0.020556      0.035474
    24   Atom        0.120194      0.017126     -0.045079
    25   Atom        0.034024     -0.036217      0.012679
    26   Atom        0.002211     -0.018990      0.008748
    27   Atom        0.026634      0.040793     -0.000990
    28   Atom        0.001632      0.020479     -0.007186
    29   Atom       -0.008326      0.002050     -0.000937
    30   Atom       -0.004130     -0.002327      0.000364
    31   Atom       -1.548386      0.148408      0.079945
    32   Atom        0.005090     -0.001628     -0.003500
    33   Atom        0.028775     -0.015327     -0.034039
    34   Atom        0.036269      0.016164      0.026490
    35   Atom        0.158602      0.046432     -0.016196
    36   Atom       -0.004533      0.030155      0.004340
    37   Atom        0.037649      0.027136     -0.032759
 --------------------------------------------------------


 ---------------------------------------------------------------------------------
              Anisotropic Spin Dipole Couplings in Principal Axis System
 ---------------------------------------------------------------------------------

       Atom             a.u.   MegaHertz   Gauss  10(-4) cm-1        Axes

              Baa    -0.4083    29.544    10.542     9.855  0.0150  0.6014  0.7988
     1 O(17)  Bbb     0.1659   -12.001    -4.282    -4.003 -0.2034  0.7841 -0.5864
              Bcc     0.2424   -17.542    -6.259    -5.851  0.9790  0.1537 -0.1341
 
              Baa    -0.1560    11.288     4.028     3.765  0.8297  0.4935 -0.2607
     2 O(17)  Bbb    -0.1001     7.244     2.585     2.416  0.5302 -0.5509  0.6445
              Bcc     0.2561   -18.531    -6.612    -6.181 -0.1745  0.6730  0.7188
 
              Baa    -0.0792   -10.628    -3.792    -3.545  0.6784  0.5182  0.5208
     3 C(13)  Bbb     0.0150     2.013     0.718     0.671 -0.0714  0.7520 -0.6553
              Bcc     0.0642     8.615     3.074     2.874  0.7312 -0.4073 -0.5472
 
              Baa    -0.0253   -13.517    -4.823    -4.509  0.6891  0.4745  0.5477
     4 H(1)   Bbb     0.0012     0.639     0.228     0.213  0.0279  0.7380 -0.6743
              Bcc     0.0241    12.878     4.595     4.296  0.7241 -0.4799 -0.4953
 
              Baa    -0.1835    13.275     4.737     4.428 -0.2764  0.9395 -0.2025
     5 O(17)  Bbb    -0.1408    10.186     3.635     3.398 -0.6666 -0.0356  0.7446
              Bcc     0.3242   -23.460    -8.371    -7.826  0.6923  0.3408  0.6361
 
              Baa    -0.3593    26.000     9.277     8.673  0.5411  0.3959  0.7420
     6 O(17)  Bbb     0.1515   -10.959    -3.910    -3.655 -0.6299 -0.3937  0.6694
              Bcc     0.2079   -15.041    -5.367    -5.017 -0.5571  0.8296 -0.0363
 
              Baa    -0.0806   -10.816    -3.859    -3.608  0.0322  0.8713  0.4897
     7 C(13)  Bbb     0.0038     0.504     0.180     0.168 -0.5672 -0.3875  0.7267
              Bcc     0.0768    10.312     3.680     3.440  0.8230 -0.3012  0.4817
 
              Baa    -0.0253   -13.521    -4.824    -4.510 -0.0119  0.8544  0.5195
     8 H(1)   Bbb    -0.0006    -0.323    -0.115    -0.108 -0.4859 -0.4591  0.7438
              Bcc     0.0259    13.843     4.940     4.618  0.8739 -0.2436  0.4206
 
              Baa    -0.1116     8.073     2.881     2.693  0.3995  0.9147  0.0601
     9 O(17)  Bbb    -0.0860     6.225     2.221     2.077  0.7976 -0.3146 -0.5146
              Bcc     0.1976   -14.298    -5.102    -4.769  0.4518 -0.2535  0.8553
 
              Baa    -0.3068    22.201     7.922     7.406 -0.4781 -0.4606  0.7479
    10 O(17)  Bbb     0.1301    -9.414    -3.359    -3.140  0.4009  0.6432  0.6524
              Bcc     0.1767   -12.787    -4.563    -4.265  0.7815 -0.6117  0.1228
 
              Baa    -0.2067    14.954     5.336     4.988 -0.5549  0.8308 -0.0430
    11 O(17)  Bbb    -0.1455    10.529     3.757     3.512  0.6631  0.4728  0.5803
              Bcc     0.3522   -25.484    -9.093    -8.500 -0.5024 -0.2935  0.8133
 
              Baa    -0.0734    -9.854    -3.516    -3.287 -0.1407  0.8079 -0.5722
    12 C(13)  Bbb    -0.0049    -0.656    -0.234    -0.219  0.5776  0.5364  0.6153
              Bcc     0.0783    10.510     3.750     3.506  0.8041 -0.2439 -0.5422
 
              Baa    -0.0240   -12.780    -4.560    -4.263 -0.1309  0.8376 -0.5303
    13 H(1)   Bbb    -0.0018    -0.969    -0.346    -0.323  0.5816  0.4981  0.6432
              Bcc     0.0258    13.748     4.906     4.586  0.8029 -0.2243 -0.5524
 
              Baa    -0.1609    11.642     4.154     3.883  0.9152  0.4031  0.0019
    14 O(17)  Bbb    -0.0989     7.160     2.555     2.388 -0.3342  0.7560  0.5628
              Bcc     0.2598   -18.801    -6.709    -6.271  0.2254 -0.5157  0.8266
 
              Baa    -0.3626    26.237     9.362     8.752  0.1021 -0.6649  0.7399
    15 O(17)  Bbb     0.1322    -9.565    -3.413    -3.191  0.3683  0.7162  0.5928
              Bcc     0.2304   -16.672    -5.949    -5.561  0.9241 -0.2120 -0.3180
 
              Baa    -0.0808   -10.845    -3.870    -3.617 -0.6491 -0.3176  0.6912
    16 C(13)  Bbb     0.0078     1.040     0.371     0.347  0.1038  0.8632  0.4941
              Bcc     0.0731     9.805     3.499     3.271  0.7536 -0.3925  0.5273
 
              Baa    -0.0271   -14.484    -5.168    -4.831 -0.6246 -0.3915  0.6757
    17 H(1)   Bbb     0.0018     0.960     0.343     0.320  0.1157  0.8094  0.5758
              Bcc     0.0253    13.524     4.826     4.511  0.7723 -0.4378  0.4603
 
              Baa    -2.9391   -50.884   -18.157   -16.973  0.8381  0.5428 -0.0535
    18 Fe(57) Bbb     1.2927    22.380     7.986     7.465  0.4403 -0.6154  0.6538
              Bcc     1.6464    28.504    10.171     9.508 -0.3220  0.5715  0.7548
 
              Baa    -0.1391    10.065     3.592     3.357  0.7985  0.5618  0.2164
    19 O(17)  Bbb    -0.0688     4.981     1.777     1.661 -0.3121  0.6937 -0.6492
              Bcc     0.2079   -15.046    -5.369    -5.019 -0.5148  0.4508  0.7292
 
              Baa    -0.1561    -2.702    -0.964    -0.901 -0.0194  0.9993 -0.0318
    20 Fe(57) Bbb     0.0700     1.211     0.432     0.404 -0.5334  0.0166  0.8457
              Bcc     0.0861     1.491     0.532     0.497  0.8456  0.0333  0.5327
 
              Baa    -0.2517    18.211     6.498     6.075  0.6744  0.7350  0.0706
    21 O(17)  Bbb    -0.1564    11.316     4.038     3.775  0.6088 -0.6076  0.5100
              Bcc     0.4081   -29.528   -10.536    -9.849 -0.4178  0.3010  0.8572
 
              Baa    -0.2253    16.301     5.817     5.437  0.0068  0.8982  0.4396
    22 O(17)  Bbb    -0.1300     9.405     3.356     3.137  0.7722  0.2746 -0.5729
              Bcc     0.3553   -25.706    -9.172    -8.575  0.6353 -0.3434  0.6917
 
              Baa    -0.1222    -2.116    -0.755    -0.706 -0.1028 -0.6341  0.7663
    23 Fe(57) Bbb    -0.0645    -1.116    -0.398    -0.372  0.2820  0.7202  0.6338
              Bcc     0.1867     3.232     1.153     1.078  0.9539 -0.2813 -0.1048
 
              Baa    -0.3048    22.054     7.869     7.356  0.9735 -0.2138 -0.0817
    24 O(17)  Bbb     0.0132    -0.958    -0.342    -0.320  0.1105  0.1263  0.9858
              Bcc     0.2915   -21.095    -7.527    -7.037  0.2004  0.9687 -0.1466
 
              Baa    -0.0571    -7.665    -2.735    -2.557  0.6818 -0.5298  0.5044
    25 C(13)  Bbb     0.0143     1.913     0.683     0.638  0.0976  0.7493  0.6550
              Bcc     0.0429     5.752     2.052     1.919  0.7250  0.3974 -0.5626
 
              Baa    -0.0208   -11.115    -3.966    -3.708  0.7213 -0.4448  0.5309
    26 H(1)   Bbb    -0.0048    -2.541    -0.907    -0.848  0.4778  0.8745  0.0834
              Bcc     0.0256    13.656     4.873     4.555 -0.5014  0.1935  0.8433
 
              Baa    -0.0570    -7.645    -2.728    -2.550  0.7946 -0.3030 -0.5261
    27 C(13)  Bbb     0.0125     1.675     0.598     0.559 -0.0858  0.8018 -0.5914
              Bcc     0.0445     5.971     2.131     1.992  0.6010  0.5151  0.6111
 
              Baa    -0.0209   -11.136    -3.974    -3.715  0.7427 -0.3554 -0.5675
    28 H(1)   Bbb    -0.0047    -2.510    -0.895    -0.837  0.3811  0.9212 -0.0782
              Bcc     0.0256    13.646     4.869     4.552  0.5506 -0.1582  0.8197
 
              Baa    -0.0131    -0.505    -0.180    -0.168 -0.0481  0.0660  0.9967
    29 N(14)  Bbb    -0.0077    -0.297    -0.106    -0.099  0.3118  0.9489 -0.0478
              Bcc     0.0208     0.802     0.286     0.268  0.9489 -0.3085  0.0662
 
              Baa    -0.0102    -0.392    -0.140    -0.131  0.0901  0.0022  0.9959
    30 N(14)  Bbb    -0.0065    -0.249    -0.089    -0.083  0.1818  0.9832 -0.0186
              Bcc     0.0166     0.641     0.229     0.214  0.9792 -0.1828 -0.0882
 
              Baa    -2.2642   163.838    58.462    54.651  0.8398  0.5407 -0.0497
    31 O(17)  Bbb     1.1134   -80.567   -28.748   -26.874 -0.1669  0.3443  0.9239
              Bcc     1.1508   -83.272   -29.713   -27.776 -0.5166  0.7676 -0.3794
 
              Baa    -0.1508    10.910     3.893     3.639  0.0865  0.0070  0.9962
    32 O(17)  Bbb    -0.1324     9.578     3.418     3.195  0.9962 -0.0129 -0.0864
              Bcc     0.2831   -20.488    -7.311    -6.834  0.0123  0.9999 -0.0081
 
              Baa    -0.0427   -22.791    -8.132    -7.602  0.9248 -0.1613  0.3446
    33 H(1)   Bbb    -0.0310   -16.551    -5.906    -5.521 -0.2419  0.4498  0.8597
              Bcc     0.0737    39.342    14.038    13.123  0.2937  0.8784 -0.3770
 
              Baa    -0.0427   -22.806    -8.138    -7.607  0.8366 -0.1777 -0.5183
    34 H(1)   Bbb    -0.0319   -17.034    -6.078    -5.682  0.4055 -0.4354  0.8038
              Bcc     0.0747    39.840    14.216    13.289  0.3684  0.8825  0.2922
 
              Baa    -0.2735    19.790     7.062     6.601  0.8997 -0.4189 -0.1230
    35 O(17)  Bbb     0.1263    -9.136    -3.260    -3.047  0.0053 -0.2711  0.9625
              Bcc     0.1472   -10.654    -3.802    -3.554  0.4366  0.8666  0.2417
 
              Baa    -0.0636   -33.920   -12.103   -11.314  0.9428  0.0617 -0.3275
    36 H(1)   Bbb     0.0280    14.962     5.339     4.991 -0.1778  0.9243 -0.3378
              Bcc     0.0355    18.957     6.764     6.323  0.2819  0.3767  0.8824
 
              Baa    -0.0662   -35.336   -12.609   -11.787  0.6360 -0.5999 -0.4854
    37 H(1)   Bbb     0.0272    14.487     5.169     4.832  0.7375  0.2874  0.6111
              Bcc     0.0391    20.849     7.440     6.955  0.2271  0.7467 -0.6252
 

 ---------------------------------------------------------------------------------

 Unable to Open any file for archive entry.
 1\1\GINC-NODE0152\SP\UM06L\def2TZVP\C6H10Fe3N2O16(5)\SVICCHI\02-May-20
 23\0\\# SP Geom=AllCheckpoint um06l/Def2TZVP int=grid=ultrafine scf=(x
 qc,intrep,maxconventionalcycle=500) pop=(CM5) nosymm guess=read\\FeFeF
 e-B-0xH2O\\0,5\O,0,1.654104,-2.10806,-1.587075\O,0,-0.526169,-2.513544
 ,-1.174096\C,0,0.53715,-2.671063,-1.786764\H,0,0.527499,-3.401721,-2.6
 15711\O,0,1.866797,2.23607,1.180184\O,0,2.946151,0.272945,1.382121\C,0
 ,2.738628,1.47555,1.659291\H,0,3.41098,1.918495,2.414972\O,0,-2.106049
 ,-0.130305,-1.49069\O,0,2.809527,0.486539,-1.438213\O,0,1.382451,2.213
 978,-1.624194\C,0,2.384885,1.541889,-1.958105\H,0,2.965823,1.93157,-2.
 81341\O,0,-0.584441,-2.09859,1.77605\O,0,1.609912,-2.281859,1.281187\C
 ,0,0.576307,-2.489457,1.976702\H,0,0.733871,-3.106474,2.878451\Fe,0,-1
 .396192,-1.141067,0.150473\O,0,-2.203912,0.274962,1.466602\Fe,0,0.1484
 7,1.859447,0.029179\O,0,-0.904179,2.103791,1.700791\O,0,-1.425527,1.99
 6524,-1.16606\Fe,0,1.981819,-0.843969,-0.028618\O,0,0.287423,-0.023408
 ,0.040073\C,0,-1.845344,1.324054,2.022954\H,0,-2.420176,1.633154,2.913
 996\C,0,-2.066457,1.081653,-1.755758\H,0,-2.67276,1.412663,-2.616461\N
 ,0,-4.965039,0.637726,-0.129774\N,0,-5.51582,-0.072341,0.495911\O,0,-2
 .744409,-2.031597,0.238135\O,0,0.240212,4.067771,-0.006181\H,0,0.71057
 ,4.24342,-0.831888\H,0,0.879619,4.249023,0.695781\O,0,3.996325,-1.7196
 37,-0.363906\H,0,4.470077,-0.986614,-0.778107\H,0,3.775744,-2.312159,-
 1.09703\\Version=ES64L-G16RevC.02\HF=-5339.7693483\S2=10.89917\S2-1=0.
 \S2A=20.560957\RMSD=5.570e-09\Dipole=2.6991924,1.5928687,-0.7079493\Qu
 adrupole=-4.2224872,2.106665,2.1158222,-1.817618,-3.7550771,2.1100883\
 PG=C01 [X(C6H10Fe3N2O16)]\\@
 The archive entry for this job was punched.


 AND HERE I AM, FOR ALL MY LORE,
 THE WRETCHED FOOL I WAS BEFORE.
 CALLED MASTER OF ARTS, AND DOCTOR TO BOOT,
 FOR TEN YEARS ALMOST I CONFUTE
 AND UP AND DOWN, WHEREVER IT GOES
 I DRAG MY STUDENTS BY THE NOSE --
 AND SEE THAT FOR ALL OUR SCIENCE AND ART
 WE CAN KNOW NOTHING.  IT BURNS MY HEART.

                                       -- FAUST
 Job cpu time:       0 days  2 hours 23 minutes 21.0 seconds.
 Elapsed time:       0 days  1 hours 13 minutes 56.9 seconds.
 File lengths (MBytes):  RWF=    822 Int=      0 D2E=      0 Chk=    397 Scr=      1
 Normal termination of Gaussian 16 at Tue May  2 09:16:59 2023.
