 Entering Gaussian System, Link 0=g16
 Input=FeFeFe-AO-2xH2O-counterpoise-opt.gjf
 Output=FeFeFe-AO-2xH2O-counterpoise-opt.log
 AtFile(1): /zfs/curium/svicchi/00-MOF/01-Gaussian/zw-basis-set/def2-TZVP/H.gbs
            !----------------------------------------------------------------------
            ! Basis Set Exchange
            ! Version v0.9
            ! https://www.basissetexchange.org
            !----------------------------------------------------------------------
            !   Basis set: def2-TZVP
            ! Description: def2-TZVP
            !        Role: orbital
            !     Version: 1  (Data from Turbomole 7.3)
            !----------------------------------------------------------------------
            H     0
            S    3   1.00
                 34.0613410              0.60251978D-02
                  5.1235746              0.45021094D-01
                  1.1646626              0.20189726
            S    1   1.00
                  0.32723041             1.0000000
            S    1   1.00
                  0.10307241             1.0000000
            P    1   1.00
                  0.8000000              1.0000000
 AtFile(1): /zfs/curium/svicchi/00-MOF/01-Gaussian/zw-basis-set/def2-TZVP/O.gbs
            !----------------------------------------------------------------------
            ! Basis Set Exchange
            ! Version v0.9
            ! https://www.basissetexchange.org
            !----------------------------------------------------------------------
            !   Basis set: def2-TZVP
            ! Description: def2-TZVP
            !        Role: orbital
            !     Version: 1  (Data from Turbomole 7.3)
            !----------------------------------------------------------------------
            O     0
            S    6   1.00
              27032.3826310              0.21726302465D-03
               4052.3871392              0.16838662199D-02
                922.32722710             0.87395616265D-02
                261.24070989             0.35239968808D-01
                 85.354641351            0.11153519115
                 31.035035245            0.25588953961
            S    2   1.00
                 12.260860728            0.39768730901
                  4.9987076005           0.24627849430
            S    1   1.00
                  1.1703108158           1.0000000
            S    1   1.00
                  0.46474740994          1.0000000
            S    1   1.00
                  0.18504536357          1.0000000
            P    4   1.00
                 63.274954801            0.60685103418D-02
                 14.627049379            0.41912575824D-01
                  4.4501223456           0.16153841088
                  1.5275799647           0.35706951311
            P    1   1.00
                  0.52935117943           .44794207502
            P    1   1.00
                  0.17478421270           .24446069663
            D    1   1.00
                  2.31400000             1.0000000
            D    1   1.00
                  0.64500000             1.0000000
            F    1   1.00
                  1.42800000             1.0000000
 AtFile(1): /zfs/curium/svicchi/00-MOF/01-Gaussian/zw-basis-set/def2-TZVP/C.gbs
            !----------------------------------------------------------------------
            ! Basis Set Exchange
            ! Version v0.9
            ! https://www.basissetexchange.org
            !----------------------------------------------------------------------
            !   Basis set: def2-TZVP
            ! Description: def2-TZVP
            !        Role: orbital
            !     Version: 1  (Data from Turbomole 7.3)
            !----------------------------------------------------------------------
            C     0
            S    6   1.00
              13575.3496820              0.22245814352D-03
               2035.2333680              0.17232738252D-02
                463.22562359             0.89255715314D-02
                131.20019598             0.35727984502D-01
                 42.853015891            0.11076259931
                 15.584185766            0.24295627626
            S    2   1.00
                  6.2067138508           0.41440263448
                  2.5764896527           0.23744968655
            S    1   1.00
                  0.57696339419          1.0000000
            S    1   1.00
                  0.22972831358          1.0000000
            S    1   1.00
                  0.95164440028D-01      1.0000000
            P    4   1.00
                 34.697232244            0.53333657805D-02
                  7.9582622826           0.35864109092D-01
                  2.3780826883           0.14215873329
                  0.81433208183          0.34270471845
            P    1   1.00
                  0.28887547253           .46445822433
            P    1   1.00
                  0.10056823671           .24955789874
            D    1   1.00
                  1.09700000             1.0000000
            D    1   1.00
                  0.31800000             1.0000000
            F    1   1.00
                  0.76100000             1.0000000
 AtFile(1): /zfs/curium/svicchi/00-MOF/01-Gaussian/zw-basis-set/def2-TZVP/Fe.gbs
            !----------------------------------------------------------------------
            ! Basis Set Exchange
            ! Version v0.9
            ! https://www.basissetexchange.org
            !----------------------------------------------------------------------
            !   Basis set: def2-TZVP
            ! Description: def2-TZVP
            !        Role: orbital
            !     Version: 1  (Data from Turbomole 7.3)
            !----------------------------------------------------------------------
            Fe     0
            S    8   1.00
             300784.8463700              0.22806273096D-03
              45088.9705570              0.17681788761D-02
              10262.5163170              0.91927083490D-02
               2905.2897293              0.37355495807D-01
                946.11487137             0.12151108426
                339.87832894             0.28818881468
                131.94425588             0.41126612677
                 52.111494077            0.21518583573
            S    4   1.00
                329.48839267            -0.24745216477D-01
                101.92332739            -0.11683089050
                 16.240462745            0.55293621136
                  6.8840675801           0.53601640182
            S    2   1.00
                 10.470693782           -0.22912708577
                  1.7360039648           0.71159319984
            S    1   1.00
                  0.72577288979          1.0000000
            S    1   1.00
                  0.11595528203          1.0000000
            S    1   1.00
                  0.41968227746D-01      1.0000000
            P    6   1.00
               1585.3959970              0.23793960179D-02
                375.38006499             0.19253154755D-01
                120.31816501             0.90021836536D-01
                 44.788749031            0.25798172356
                 17.829278584            0.41492649744
                  7.2247153786           0.24207474784
            P    3   1.00
                 28.143219756           -0.29041755152D-01
                  3.8743241412           0.55312260343
                  1.5410752281           0.96771136842
            P    1   1.00
                  0.58285615250          1.0000000
            P    1   1.00
                  0.1349150              1.0000000
            D    4   1.00
                 61.996675034            0.11971972255D-01
                 17.873732552            0.73210135410D-01
                  6.2744782934           0.23103094314
                  2.3552337175           0.39910706494
            D    1   1.00
                  0.85432239901           .41391589765
            D    1   1.00
                  0.27869254413           .21909269782
            D    1   1.00
                  0.0910000              1.0000000
            F    1   1.00
                  1.5980000              1.0000000
 AtFile(1): /zfs/curium/svicchi/00-MOF/01-Gaussian/zw-basis-set/def2-TZVP/N.gbs
            !----------------------------------------------------------------------
            ! Basis Set Exchange
            ! Version v0.9
            ! https://www.basissetexchange.org
            !----------------------------------------------------------------------
            !   Basis set: def2-TZVP
            ! Description: def2-TZVP
            !        Role: orbital
            !     Version: 1  (Data from Turbomole 7.3)
            !----------------------------------------------------------------------
            N     0
            S    6   1.00
              19730.8006470              0.21887984991D-03
               2957.8958745              0.16960708803D-02
                673.22133595             0.87954603538D-02
                190.68249494             0.35359382605D-01
                 62.295441898            0.11095789217
                 22.654161182            0.24982972552
            S    2   1.00
                  8.9791477428           0.40623896148
                  3.6863002370           0.24338217176
            S    1   1.00
                  0.84660076805          1.0000000
            S    1   1.00
                  0.33647133771          1.0000000
            S    1   1.00
                  0.13647653675          1.0000000
            P    4   1.00
                 49.200380510            0.55552416751D-02
                 11.346790537            0.38052379723D-01
                  3.4273972411           0.14953671029
                  1.1785525134           0.34949305230
            P    1   1.00
                  0.41642204972           .45843153697
            P    1   1.00
                  0.14260826011           .24428771672
            D    1   1.00
                  1.65400000             1.0000000
            D    1   1.00
                  0.46900000             1.0000000
            F    1   1.00
                  1.09300000             1.0000000
 Initial command:
 /software/commercial/gaussian/g16/AVX2/g16/l1.exe "/scratch1/svicchi/G09-89565.pbs02/Gau-3648936.inp" -scrdir="/scratch1/svicchi/G09-89565.pbs02/"
 Entering Link 1 = /software/commercial/gaussian/g16/AVX2/g16/l1.exe PID=   3648937.
  
 Copyright (c) 1988-2021, Gaussian, Inc.  All Rights Reserved.
  
 This is part of the Gaussian(R) 16 program.  It is based on
 the Gaussian(R) 09 system (copyright 2009, Gaussian, Inc.),
 the Gaussian(R) 03 system (copyright 2003, Gaussian, Inc.),
 the Gaussian(R) 98 system (copyright 1998, Gaussian, Inc.),
 the Gaussian(R) 94 system (copyright 1995, Gaussian, Inc.),
 the Gaussian 92(TM) system (copyright 1992, Gaussian, Inc.),
 the Gaussian 90(TM) system (copyright 1990, Gaussian, Inc.),
 the Gaussian 88(TM) system (copyright 1988, Gaussian, Inc.),
 the Gaussian 86(TM) system (copyright 1986, Carnegie Mellon
 University), and the Gaussian 82(TM) system (copyright 1983,
 Carnegie Mellon University). Gaussian is a federally registered
 trademark of Gaussian, Inc.
  
 This software contains proprietary and confidential information,
 including trade secrets, belonging to Gaussian, Inc.
  
 This software is provided under written license and may be
 used, copied, transmitted, or stored only in accord with that
 written license.
  
 The following legend is applicable only to US Government
 contracts under FAR:
  
                    RESTRICTED RIGHTS LEGEND
  
 Use, reproduction and disclosure by the US Government is
 subject to restrictions as set forth in subparagraphs (a)
 and (c) of the Commercial Computer Software - Restricted
 Rights clause in FAR 52.227-19.
  
 Gaussian, Inc.
 340 Quinnipiac St., Bldg. 40, Wallingford CT 06492
  
  
 ---------------------------------------------------------------
 Warning -- This program may not be used in any manner that
 competes with the business of Gaussian, Inc. or will provide
 assistance to any competitor of Gaussian, Inc.  The licensee
 of this program is prohibited from giving any competitor of
 Gaussian, Inc. access to this program.  By using this program,
 the user acknowledges that Gaussian, Inc. is engaged in the
 business of creating and licensing software in the field of
 computational chemistry and represents and warrants to the
 licensee that it is not a competitor of Gaussian, Inc. and that
 it will not use this program in any manner prohibited above.
 ---------------------------------------------------------------
  

 Cite this work as:
 Gaussian 16, Revision C.02,
 M. J. Frisch, G. W. Trucks, H. B. Schlegel, G. E. Scuseria, 
 M. A. Robb, J. R. Cheeseman, G. Scalmani, V. Barone, 
 G. A. Petersson, H. Nakatsuji, X. Li, M. Caricato, A. V. Marenich, 
 J. Bloino, B. G. Janesko, R. Gomperts, B. Mennucci, H. P. Hratchian, 
 J. V. Ortiz, A. F. Izmaylov, J. L. Sonnenberg, D. Williams-Young, 
 F. Ding, F. Lipparini, F. Egidi, J. Goings, B. Peng, A. Petrone, 
 T. Henderson, D. Ranasinghe, V. G. Zakrzewski, J. Gao, N. Rega, 
 G. Zheng, W. Liang, M. Hada, M. Ehara, K. Toyota, R. Fukuda, 
 J. Hasegawa, M. Ishida, T. Nakajima, Y. Honda, O. Kitao, H. Nakai, 
 T. Vreven, K. Throssell, J. A. Montgomery, Jr., J. E. Peralta, 
 F. Ogliaro, M. J. Bearpark, J. J. Heyd, E. N. Brothers, K. N. Kudin, 
 V. N. Staroverov, T. A. Keith, R. Kobayashi, J. Normand, 
 K. Raghavachari, A. P. Rendell, J. C. Burant, S. S. Iyengar, 
 J. Tomasi, M. Cossi, J. M. Millam, M. Klene, C. Adamo, R. Cammi, 
 J. W. Ochterski, R. L. Martin, K. Morokuma, O. Farkas, 
 J. B. Foresman, and D. J. Fox, Gaussian, Inc., Wallingford CT, 2019.
 
 ******************************************
 Gaussian 16:  ES64L-G16RevC.02  7-Dec-2021
                 2-Feb-2023 
 ******************************************
 %NProcShared=2
 Will use up to    2 processors via shared memory.
 %mem=110gb
 %chk=/scratch1/svicchi/G09-89565.pbs02/00-opt/FeFeFe-AO-2xH2O-counterpoise-opt.c
 hk
 ----------------------------------------------------------------------
 #p gen um06l int=grid=ultrafine scf=(xqc,intrep,maxconventionalcycle=1
 50) pop=(hirshfeld) nosymm counterpoise=4
 ----------------------------------------------------------------------
 1/38=1,62=4,172=1/1;
 2/12=2,15=1,17=6,18=5,40=1/2;
 1/38=1,53=2,62=4,63=1/22;
 3/5=7,11=2,25=1,30=1,74=-53,75=-5,116=2/1,2,3;
 4//1;
 5/5=2,8=3,13=1,17=20,38=5,85=150/2,8;
 6/7=2,8=2,9=2,10=2,28=1,79=1/1;
 1/53=2,62=4,63=1/22;
 3/5=7,6=11,11=2,25=1,30=1,74=-53,75=-5,82=7,116=2/1,2,3;
 4//1;
 5/5=2,8=3,13=1,17=20,38=5,85=150/2,8;
 6/7=2,8=2,9=2,10=2,28=1,79=1/1;
 1/53=2,62=4,63=1/22(-4);
 99/5=1,9=1/99;
 Leave Link    1 at Thu Feb  2 10:08:07 2023, MaxMem= 14763950080 cpu:               0.0 elap:               3.2
 (Enter /software/commercial/gaussian/g16/AVX2/g16/l101.exe)
 ---------------
 FeFeFe-AO-2xH2O
 ---------------
 Symbolic Z-matrix:
 Charge =  0 Multiplicity =15 in supermolecule
 Charge =  0 Multiplicity =15 in fragment      1.
 Charge =  0 Multiplicity = 1 in fragment      2.
 Charge =  0 Multiplicity = 1 in fragment      3.
 Charge =  0 Multiplicity = 1 in fragment      4.
 O(fragment=1)         0.90188   2.46442   1.62966 
 O(fragment=1)        -1.2839    1.93486   1.48818 
 C(fragment=1)        -0.30314   2.55884   1.95689 
 H(fragment=1)        -0.53105   3.28087   2.76023 
 O(fragment=1)         2.36535  -1.71903  -1.33142 
 O(fragment=1)         2.98015   0.44679  -1.30016 
 C(fragment=1)         3.02657  -0.73048  -1.72394 
 H(fragment=1)         3.74001  -0.92134  -2.54687 
 O(fragment=1)        -2.08437  -0.83342   1.43528 
 O(fragment=1)         2.97429   0.40451   1.58184 
 O(fragment=1)         2.35692  -1.76152   1.55101 
 C(fragment=1)         3.03588  -0.78936   1.95536 
 H(fragment=1)         3.78034  -1.01295   2.73917 
 O(fragment=1)        -1.24359   1.94374  -1.37336 
 O(fragment=1)         0.91628   2.56741  -1.24924 
 C(fragment=1)        -0.25041   2.62679  -1.70618 
 H(fragment=1)        -0.42385   3.37261  -2.50245 
 Fe(fragment=1)       -1.35882   0.49895   0.0554 
 O(fragment=1)        -2.03481  -0.79491  -1.39368 
 Fe(fragment=1)        0.89105  -1.88712   0.1596 
 O(fragment=1)        -0.50187  -2.44219  -1.32858 
 O(fragment=1)        -0.49451  -2.42604   1.54942 
 Fe(fragment=1)        1.80346   1.3264    0.20803 
 O(fragment=1)         0.44829  -0.02556   0.0973 
 C(fragment=1)        -1.53849  -1.88435  -1.75846 
 H(fragment=1)        -2.082    -2.41718  -2.55949 
 C(fragment=1)        -1.57941  -1.89456   1.87457 
 H(fragment=1)        -2.16612  -2.42386   2.64573 
 N(fragment=2)        -4.4692    0.11996   0.01255 
 N(fragment=2)        -5.17615  -0.75238   0.00317 
 O(fragment=2)        -3.7377    1.04871   0.02146 
 O(fragment=3)         3.32849   2.86173  -0.12493 
 H(fragment=3)         3.92364   2.3681   -0.70698 
 H(fragment=3)         2.81691   3.42451  -0.72551 
 O(fragment=4)         1.39046  -3.98712  -0.22427 
 H(fragment=4)         2.16279  -3.85898  -0.79341 
 H(fragment=4)         0.6689   -4.18542  -0.83967 
 
 ITRead=  0  0  0  0  0  0  0  0  0  0  0  0  0  0  0  0  0  0  0  0
 ITRead=  0  0  0  0  0  0  0  0  0  0  0  0  0  0  0  0  0
 MicOpt= -1 -1 -1 -1 -1 -1 -1 -1 -1 -1 -1 -1 -1 -1 -1 -1 -1 -1 -1 -1
 MicOpt= -1 -1 -1 -1 -1 -1 -1 -1 -1 -1 -1 -1 -1 -1 -1 -1 -1
 NAtoms=     37 NQM=       37 NQMF=       0 NMMI=      0 NMMIF=      0
                NMic=       0 NMicF=      0.
                    Isotopes and Nuclear Properties:
 (Nuclear quadrupole moments (NQMom) in fm**2, nuclear magnetic moments (NMagM)
  in nuclear magnetons)

  Atom         1           2           3           4           5           6           7           8           9          10
 IAtWgt=          16          16          12           1          16          16          12           1          16          16
 AtmWgt=  15.9949146  15.9949146  12.0000000   1.0078250  15.9949146  15.9949146  12.0000000   1.0078250  15.9949146  15.9949146
 NucSpn=           0           0           0           1           0           0           0           1           0           0
 AtZEff=  -0.0000000  -0.0000000  -0.0000000  -0.0000000  -0.0000000  -0.0000000  -0.0000000  -0.0000000  -0.0000000  -0.0000000
 NQMom=    0.0000000   0.0000000   0.0000000   0.0000000   0.0000000   0.0000000   0.0000000   0.0000000   0.0000000   0.0000000
 NMagM=    0.0000000   0.0000000   0.0000000   2.7928460   0.0000000   0.0000000   0.0000000   2.7928460   0.0000000   0.0000000
 AtZNuc=   8.0000000   8.0000000   6.0000000   1.0000000   8.0000000   8.0000000   6.0000000   1.0000000   8.0000000   8.0000000

  Atom        11          12          13          14          15          16          17          18          19          20
 IAtWgt=          16          12           1          16          16          12           1          56          16          56
 AtmWgt=  15.9949146  12.0000000   1.0078250  15.9949146  15.9949146  12.0000000   1.0078250  55.9349393  15.9949146  55.9349393
 NucSpn=           0           0           1           0           0           0           1           0           0           0
 AtZEff=  -0.0000000  -0.0000000  -0.0000000  -0.0000000  -0.0000000  -0.0000000  -0.0000000  -0.0000000  -0.0000000  -0.0000000
 NQMom=    0.0000000   0.0000000   0.0000000   0.0000000   0.0000000   0.0000000   0.0000000   0.0000000   0.0000000   0.0000000
 NMagM=    0.0000000   0.0000000   2.7928460   0.0000000   0.0000000   0.0000000   2.7928460   0.0000000   0.0000000   0.0000000
 AtZNuc=   8.0000000   6.0000000   1.0000000   8.0000000   8.0000000   6.0000000   1.0000000  26.0000000   8.0000000  26.0000000

  Atom        21          22          23          24          25          26          27          28          29          30
 IAtWgt=          16          16          56          16          12           1          12           1          14          14
 AtmWgt=  15.9949146  15.9949146  55.9349393  15.9949146  12.0000000   1.0078250  12.0000000   1.0078250  14.0030740  14.0030740
 NucSpn=           0           0           0           0           0           1           0           1           2           2
 AtZEff=  -0.0000000  -0.0000000  -0.0000000  -0.0000000  -0.0000000  -0.0000000  -0.0000000  -0.0000000  -0.0000000  -0.0000000
 NQMom=    0.0000000   0.0000000   0.0000000   0.0000000   0.0000000   0.0000000   0.0000000   0.0000000   2.0440000   2.0440000
 NMagM=    0.0000000   0.0000000   0.0000000   0.0000000   0.0000000   2.7928460   0.0000000   2.7928460   0.4037610   0.4037610
 AtZNuc=   8.0000000   8.0000000  26.0000000   8.0000000   6.0000000   1.0000000   6.0000000   1.0000000   7.0000000   7.0000000

  Atom        31          32          33          34          35          36          37
 IAtWgt=          16          16           1           1          16           1           1
 AtmWgt=  15.9949146  15.9949146   1.0078250   1.0078250  15.9949146   1.0078250   1.0078250
 NucSpn=           0           0           1           1           0           1           1
 AtZEff=  -0.0000000  -0.0000000  -0.0000000  -0.0000000  -0.0000000  -0.0000000  -0.0000000
 NQMom=    0.0000000   0.0000000   0.0000000   0.0000000   0.0000000   0.0000000   0.0000000
 NMagM=    0.0000000   0.0000000   2.7928460   2.7928460   0.0000000   2.7928460   2.7928460
 AtZNuc=   8.0000000   8.0000000   1.0000000   1.0000000   8.0000000   1.0000000   1.0000000
 Leave Link  101 at Thu Feb  2 10:08:09 2023, MaxMem= 14763950080 cpu:               0.1 elap:               0.4
 (Enter /software/commercial/gaussian/g16/AVX2/g16/l202.exe)
                          Input orientation:                          
 ---------------------------------------------------------------------
 Center     Atomic      Atomic             Coordinates (Angstroms)
 Number     Number       Type             X           Y           Z
 ---------------------------------------------------------------------
      1          8           0        0.901884    2.464421    1.629663
      2          8           0       -1.283903    1.934857    1.488176
      3          6           0       -0.303142    2.558835    1.956885
      4          1           0       -0.531050    3.280866    2.760225
      5          8           0        2.365350   -1.719034   -1.331416
      6          8           0        2.980154    0.446788   -1.300160
      7          6           0        3.026568   -0.730477   -1.723940
      8          1           0        3.740012   -0.921343   -2.546873
      9          8           0       -2.084369   -0.833419    1.435282
     10          8           0        2.974287    0.404510    1.581837
     11          8           0        2.356918   -1.761522    1.551008
     12          6           0        3.035877   -0.789357    1.955355
     13          1           0        3.780340   -1.012947    2.739167
     14          8           0       -1.243588    1.943741   -1.373355
     15          8           0        0.916277    2.567410   -1.249241
     16          6           0       -0.250407    2.626787   -1.706177
     17          1           0       -0.423847    3.372607   -2.502445
     18         26           0       -1.358816    0.498954    0.055400
     19          8           0       -2.034813   -0.794909   -1.393682
     20         26           0        0.891049   -1.887124    0.159596
     21          8           0       -0.501873   -2.442192   -1.328578
     22          8           0       -0.494514   -2.426038    1.549418
     23         26           0        1.803464    1.326402    0.208030
     24          8           0        0.448290   -0.025555    0.097302
     25          6           0       -1.538489   -1.884354   -1.758462
     26          1           0       -2.082002   -2.417178   -2.559488
     27          6           0       -1.579411   -1.894556    1.874570
     28          1           0       -2.166116   -2.423859    2.645731
     29          7           0       -4.469200    0.119957    0.012553
     30          7           0       -5.176147   -0.752380    0.003168
     31          8           0       -3.737701    1.048707    0.021456
     32          8           0        3.328491    2.861727   -0.124930
     33          1           0        3.923643    2.368101   -0.706982
     34          1           0        2.816905    3.424506   -0.725505
     35          8           0        1.390462   -3.987118   -0.224269
     36          1           0        2.162789   -3.858984   -0.793408
     37          1           0        0.668901   -4.185424   -0.839670
 ---------------------------------------------------------------------
                    Distance matrix (angstroms):
                    1          2          3          4          5
     1  O    0.000000
     2  O    2.253469   0.000000
     3  C    1.252228   1.253367   0.000000
     4  H    1.999513   1.999159   1.103914   0.000000
     5  O    5.330199   5.883712   6.019463   7.080230   0.000000
     6  O    4.119941   5.307669   5.084203   6.070196   2.251610
     7  C    5.095911   6.000155   5.954411   6.989653   1.252409
     8  H    6.079623   7.048349   6.981588   8.004113   2.000835
     9  O    4.453228   2.882169   3.866811   4.592996   5.314032
    10  O    2.922392   4.525806   3.939964   4.685020   3.656130
    11  O    4.470112   5.188713   5.089807   5.935338   2.882749
    12  C    3.904750   5.128362   4.728577   5.471517   3.480915
    13  H    4.648505   5.991751   5.481279   6.084847   4.366967
    14  O    3.727234   2.861829   3.514723   4.402510   5.142190
    15  O    2.880782   3.568525   3.430204   4.321989   4.525502
    16  C    3.532983   3.427940   3.664072   4.522757   5.086137
    17  H    4.433586   4.328034   4.534580   5.264561   5.922477
    18  Fe   3.384099   2.029846   2.995530   3.967406   4.551059
    19  O    5.328042   4.039875   5.047037   6.010673   4.496590
    20  Fe   4.593164   4.593809   4.941952   5.957664   2.103553
    21  O    5.898862   5.263481   5.986989   7.033673   2.957014
    22  O    5.086547   4.432188   5.005158   5.834050   4.120422
    23  Fe   2.031988   3.397179   3.002528   3.972856   3.458365
    24  O    2.958692   2.962809   3.271356   4.356912   2.929885
    25  C    6.028819   5.019148   5.922146   6.936351   3.930605
    26  H    7.091020   5.996729   6.951451   7.948113   4.666316
    27  C    5.021701   3.860185   4.633393   5.354292   5.086285
    28  H    5.860060   4.595284   5.363993   5.935523   6.070310
    29  N    6.079482   3.951891   5.204286   5.748919   7.204111
    30  N    7.066524   4.957424   6.207039   6.741318   7.719437
    31  O    5.110413   2.992934   4.221678   4.771373   6.836511
    32  O    3.020740   4.973467   4.196958   4.836926   4.833903
    33  H    3.821023   5.667888   4.999828   5.718300   4.418469
    34  H    3.183690   4.892450   4.204675   4.835261   5.198753
    35  O    6.730388   6.719709   7.104592   8.088449   2.705621
    36  H    6.888150   7.117156   7.404953   8.417989   2.215823
    37  H    7.097346   6.833019   7.365502   8.375238   3.033617
                    6          7          8          9         10
     6  O    0.000000
     7  C    1.252077   0.000000
     8  H    2.000865   1.105735   0.000000
     9  O    5.896691   6.009406   7.056111   0.000000
    10  O    2.882313   3.495582   4.403461   5.209985   0.000000
    11  O    3.659811   3.498109   4.405846   4.538700   2.252507
    12  C    3.482749   3.679778   4.558869   5.146779   1.252449
    13  H    4.368900   4.535117   5.286987   6.010587   1.999580
    14  O    4.481766   5.050602   5.867037   4.038313   5.375208
    15  O    2.959598   3.943948   4.672122   5.270311   4.114431
    16  C    3.918389   4.691493   5.405501   5.020479   5.113531
    17  H    4.646841   5.417262   5.981446   5.996139   6.085908
    18  Fe   4.546089   4.889698   5.898060   2.050785   4.595075
    19  O    5.167248   5.072554   5.890199   2.829660   5.948395
    20  Fe   3.455777   3.073432   4.046517   3.404524   3.407967
    21  O    4.524547   3.941596   4.668063   3.568104   5.353309
    22  O    5.333530   5.097825   6.080700   2.253242   4.477235
    23  Fe   2.105459   3.075588   4.048712   4.613699   2.026834
    24  O    2.930246   3.234402   4.316194   2.976104   2.961328
    25  C    5.105135   4.708755   5.423242   3.406237   6.063138
    26  H    5.950935   5.444317   6.011117   4.297265   7.118887
    27  C    6.029132   5.959815   6.985167   1.254579   5.109556
    28  H    7.091880   6.994679   8.006437   2.000342   5.962825
    29  N    7.571189   7.741136   8.661762   2.936069   7.612432
    30  N    8.346371   8.382596   9.275190   3.408315   8.382134
    31  O    6.873031   7.208831   8.148227   2.876597   6.921023
    32  O    2.708216   3.943592   4.510740   6.737019   3.012711
    33  H    2.221143   3.382327   3.773508   7.136892   3.161591
    34  H    3.037052   4.278401   4.801657   6.842617   3.803810
    35  O    4.831582   3.941011   4.507089   4.977387   5.005688
    36  H    4.411865   3.376323   3.767228   5.670931   4.947494
    37  H    5.197242   4.275183   4.795883   4.898147   5.678556
                   11         12         13         14         15
    11  O    0.000000
    12  C    1.252831   0.000000
    13  H    1.999554   1.103893   0.000000
    14  O    5.936709   6.071569   7.134052   0.000000
    15  O    5.353176   5.101963   6.076941   2.251529   0.000000
    16  C    6.055134   5.989701   7.018238   1.250492   1.254379
    17  H    7.107912   7.011677   8.023887   1.997117   2.003695
    18  Fe   4.599269   4.958115   5.991609   2.035197   3.340157
    19  O    5.375206   6.076839   7.137506   2.850729   4.476046
    20  Fe   2.024988   3.005017   3.970689   4.645658   4.672080
    21  O    4.114367   5.102132   6.076729   4.448433   5.207068
    22  O    2.927840   3.912438   4.656899   5.310243   5.895536
    23  Fe   3.412503   3.008060   3.973317   3.488038   2.109701
    24  O    2.961369   3.275876   4.365427   2.983858   2.958996
    25  C    5.112913   5.993019   7.019826   3.858703   5.109147
    26  H    6.085234   7.016145   8.025875   4.596462   5.962595
    27  C    3.951845   4.746459   5.500154   5.039278   5.991310
    28  H    4.700526   5.496267   6.112262   6.006666   7.041642
    29  N    7.245874   7.805608   8.762009   3.956198   6.048596
    30  N    7.756368   8.440956   9.368684   4.962752   7.050331
    31  O    6.883407   7.280096   8.255744   2.994526   5.057731
    32  O    5.012699   4.212318   4.839454   4.827543   2.677587
    33  H    4.960537   4.224418   4.829903   5.227276   3.062355
    34  H    5.682340   4.999160   5.711668   4.370352   2.149721
    35  O    3.006480   4.205214   4.831062   6.590425   6.651109
    36  H    3.151717   4.211958   4.816169   6.753618   6.562021
    37  H    3.800006   4.994798   5.705588   6.442755   6.769764
                   16         17         18         19         20
    16  C    0.000000
    17  H    1.104704   0.000000
    18  Fe   2.976474   3.959119   0.000000
    19  O    3.871661   4.603559   2.056913   0.000000
    20  Fe   5.015917   6.039883   3.281176   3.488019   0.000000
    21  O    5.089240   5.932617   3.361560   2.251152   2.112580
    22  O    6.015773   7.074381   3.396275   3.700668   2.035146
    23  Fe   3.094120   4.061348   3.272305   4.668813   3.340898
    24  O    3.282626   4.366556   1.882152   2.996788   1.914512
    25  C    4.691725   5.425088   3.000422   1.251516   3.095417
    26  H    5.433642   6.022818   3.983022   1.998271   4.063669
    27  C    5.918661   6.945257   3.014454   3.478230   3.007385
    28  H    6.936719   7.945957   3.988030   4.357474   3.976834
    29  N    5.199658   5.768000   3.133682   2.956470   5.725580
    30  N    6.213175   6.773328   4.017534   3.438165   6.174381
    31  O    4.199556   4.769928   2.441818   2.881209   5.483020
    32  O    3.919700   4.471422   5.252244   6.614057   5.345434
    33  H    4.299768   4.809718   5.655025   6.780810   5.296652
    34  H    3.317601   3.696307   5.158034   6.464448   5.718893
    35  O    6.973682   7.915008   5.268926   4.825996   2.192428
    36  H    6.980107   7.868126   5.666904   5.231515   2.532542
    37  H    6.928361   7.815546   5.182295   4.371795   2.515962
                   21         22         23         24         25
    21  O    0.000000
    22  O    2.878051   0.000000
    23  Fe   4.677397   4.600090   0.000000
    24  O    2.962445   2.959703   1.917432   0.000000
    25  C    1.253218   3.510751   5.034351   3.293370   0.000000
    26  H    2.003141   4.404918   6.063860   4.379586   1.104966
    27  C    3.423617   1.251079   4.959412   3.280765   3.633277
    28  H    4.308732   1.999040   5.980335   4.368234   4.481283
    29  N    4.909473   4.964088   6.390621   4.920372   3.967723
    30  N    5.145663   5.206698   7.285484   5.671986   4.197292
    31  O    4.947681   4.992673   5.551255   4.322304   4.075229
    32  O    6.652219   6.736414   2.189473   4.084280   6.991510
    33  H    6.565858   6.898929   2.533287   4.295875   7.001705
    34  H    6.767284   7.097157   2.510098   4.265005   6.944095
    35  O    2.680900   3.022593   5.347050   4.084737   3.918433
    36  H    3.064985   3.821443   5.293413   4.292790   4.304643
    37  H    2.156061   3.186960   5.724084   4.269789   3.318384
                   26         27         28         29         30
    26  H    0.000000
    27  C    4.492950   0.000000
    28  H    5.205903   1.104117   0.000000
    29  N    4.330261   3.984501   4.325370   0.000000
    30  N    4.348849   4.212270   4.340192   1.122869   0.000000
    31  O    4.627631   4.093293   4.627679   1.182263   2.305076
    32  O    7.941495   7.120936   8.112009   8.266813   9.241593
    33  H    7.899269   7.424167   8.443265   8.718469   9.646134
    34  H    7.841432   7.374307   8.390417   8.034432   9.047995
    35  O    4.469448   4.195722   4.830106   7.159594   7.323634
    36  H    4.818308   4.998114   5.711977   7.775913   8.009089
    37  H    3.694853   4.203580   4.825811   6.757416   6.830868
                   31         32         33         34         35
    31  O    0.000000
    32  O    7.296543   0.000000
    33  H    7.808176   0.967810   0.000000
    34  H    7.011792   0.969088   1.530099   0.000000
    35  O    7.191521   7.118462   6.858486   7.564268   0.000000
    36  H    7.717851   6.853735   6.471836   7.313119   0.967898
    37  H    6.896072   7.566149   7.318445   7.908096   0.968862
                   36         37
    36  H    0.000000
    37  H    1.529838   0.000000
 Symmetry turned off by external request.
 Stoichiometry    C6H10Fe3N2O16(15)
 Framework group  C1[X(C6H10Fe3N2O16)]
 Deg. of freedom   105
 Full point group                 C1      NOp   1
 Rotational constants (GHZ):           0.2118469           0.1616475           0.1219801
 Leave Link  202 at Thu Feb  2 10:08:11 2023, MaxMem= 14763950080 cpu:               0.0 elap:               0.8
 (Enter /software/commercial/gaussian/g16/AVX2/g16/l122.exe)
 Counterpoise: doing full-system calculation.
 Leave Link  122 at Thu Feb  2 10:08:13 2023, MaxMem= 14763950080 cpu:               0.1 elap:               0.9
 (Enter /software/commercial/gaussian/g16/AVX2/g16/l301.exe)
 General basis read from cards:  (5D, 7F)
 Centers:       4      8     13     17     26     28     33     34     36     37
 S 3 1.00
     Exponent=  3.4061341000D+01 Coefficients=  6.0251978000D-03
     Exponent=  5.1235746000D+00 Coefficients=  4.5021094000D-02
     Exponent=  1.1646626000D+00 Coefficients=  2.0189726000D-01
 S 1 1.00
     Exponent=  3.2723041000D-01 Coefficients=  1.0000000000D+00
 S 1 1.00
     Exponent=  1.0307241000D-01 Coefficients=  1.0000000000D+00
 P 1 1.00
     Exponent=  8.0000000000D-01 Coefficients=  1.0000000000D+00
 ****
 Centers:       1      2      5      6      9     10     11     14     15     19
 Centers:      21     22     24     31     32     35
 S 6 1.00
     Exponent=  2.7032382631D+04 Coefficients=  2.1726302465D-04
     Exponent=  4.0523871392D+03 Coefficients=  1.6838662199D-03
     Exponent=  9.2232722710D+02 Coefficients=  8.7395616265D-03
     Exponent=  2.6124070989D+02 Coefficients=  3.5239968808D-02
     Exponent=  8.5354641351D+01 Coefficients=  1.1153519115D-01
     Exponent=  3.1035035245D+01 Coefficients=  2.5588953961D-01
 S 2 1.00
     Exponent=  1.2260860728D+01 Coefficients=  3.9768730901D-01
     Exponent=  4.9987076005D+00 Coefficients=  2.4627849430D-01
 S 1 1.00
     Exponent=  1.1703108158D+00 Coefficients=  1.0000000000D+00
 S 1 1.00
     Exponent=  4.6474740994D-01 Coefficients=  1.0000000000D+00
 S 1 1.00
     Exponent=  1.8504536357D-01 Coefficients=  1.0000000000D+00
 P 4 1.00
     Exponent=  6.3274954801D+01 Coefficients=  6.0685103418D-03
     Exponent=  1.4627049379D+01 Coefficients=  4.1912575824D-02
     Exponent=  4.4501223456D+00 Coefficients=  1.6153841088D-01
     Exponent=  1.5275799647D+00 Coefficients=  3.5706951311D-01
 P 1 1.00
     Exponent=  5.2935117943D-01 Coefficients=  4.4794207502D-01
 P 1 1.00
     Exponent=  1.7478421270D-01 Coefficients=  2.4446069663D-01
 D 1 1.00
     Exponent=  2.3140000000D+00 Coefficients=  1.0000000000D+00
 D 1 1.00
     Exponent=  6.4500000000D-01 Coefficients=  1.0000000000D+00
 F 1 1.00
     Exponent=  1.4280000000D+00 Coefficients=  1.0000000000D+00
 ****
 Centers:       3      7     12     16     25     27
 S 6 1.00
     Exponent=  1.3575349682D+04 Coefficients=  2.2245814352D-04
     Exponent=  2.0352333680D+03 Coefficients=  1.7232738252D-03
     Exponent=  4.6322562359D+02 Coefficients=  8.9255715314D-03
     Exponent=  1.3120019598D+02 Coefficients=  3.5727984502D-02
     Exponent=  4.2853015891D+01 Coefficients=  1.1076259931D-01
     Exponent=  1.5584185766D+01 Coefficients=  2.4295627626D-01
 S 2 1.00
     Exponent=  6.2067138508D+00 Coefficients=  4.1440263448D-01
     Exponent=  2.5764896527D+00 Coefficients=  2.3744968655D-01
 S 1 1.00
     Exponent=  5.7696339419D-01 Coefficients=  1.0000000000D+00
 S 1 1.00
     Exponent=  2.2972831358D-01 Coefficients=  1.0000000000D+00
 S 1 1.00
     Exponent=  9.5164440028D-02 Coefficients=  1.0000000000D+00
 P 4 1.00
     Exponent=  3.4697232244D+01 Coefficients=  5.3333657805D-03
     Exponent=  7.9582622826D+00 Coefficients=  3.5864109092D-02
     Exponent=  2.3780826883D+00 Coefficients=  1.4215873329D-01
     Exponent=  8.1433208183D-01 Coefficients=  3.4270471845D-01
 P 1 1.00
     Exponent=  2.8887547253D-01 Coefficients=  4.6445822433D-01
 P 1 1.00
     Exponent=  1.0056823671D-01 Coefficients=  2.4955789874D-01
 D 1 1.00
     Exponent=  1.0970000000D+00 Coefficients=  1.0000000000D+00
 D 1 1.00
     Exponent=  3.1800000000D-01 Coefficients=  1.0000000000D+00
 F 1 1.00
     Exponent=  7.6100000000D-01 Coefficients=  1.0000000000D+00
 ****
 Centers:      18     20     23
 S 8 1.00
     Exponent=  3.0078484637D+05 Coefficients=  2.2806273096D-04
     Exponent=  4.5088970557D+04 Coefficients=  1.7681788761D-03
     Exponent=  1.0262516317D+04 Coefficients=  9.1927083490D-03
     Exponent=  2.9052897293D+03 Coefficients=  3.7355495807D-02
     Exponent=  9.4611487137D+02 Coefficients=  1.2151108426D-01
     Exponent=  3.3987832894D+02 Coefficients=  2.8818881468D-01
     Exponent=  1.3194425588D+02 Coefficients=  4.1126612677D-01
     Exponent=  5.2111494077D+01 Coefficients=  2.1518583573D-01
 S 4 1.00
     Exponent=  3.2948839267D+02 Coefficients= -2.4745216477D-02
     Exponent=  1.0192332739D+02 Coefficients= -1.1683089050D-01
     Exponent=  1.6240462745D+01 Coefficients=  5.5293621136D-01
     Exponent=  6.8840675801D+00 Coefficients=  5.3601640182D-01
 S 2 1.00
     Exponent=  1.0470693782D+01 Coefficients= -2.2912708577D-01
     Exponent=  1.7360039648D+00 Coefficients=  7.1159319984D-01
 S 1 1.00
     Exponent=  7.2577288979D-01 Coefficients=  1.0000000000D+00
 S 1 1.00
     Exponent=  1.1595528203D-01 Coefficients=  1.0000000000D+00
 S 1 1.00
     Exponent=  4.1968227746D-02 Coefficients=  1.0000000000D+00
 P 6 1.00
     Exponent=  1.5853959970D+03 Coefficients=  2.3793960179D-03
     Exponent=  3.7538006499D+02 Coefficients=  1.9253154755D-02
     Exponent=  1.2031816501D+02 Coefficients=  9.0021836536D-02
     Exponent=  4.4788749031D+01 Coefficients=  2.5798172356D-01
     Exponent=  1.7829278584D+01 Coefficients=  4.1492649744D-01
     Exponent=  7.2247153786D+00 Coefficients=  2.4207474784D-01
 P 3 1.00
     Exponent=  2.8143219756D+01 Coefficients= -2.9041755152D-02
     Exponent=  3.8743241412D+00 Coefficients=  5.5312260343D-01
     Exponent=  1.5410752281D+00 Coefficients=  9.6771136842D-01
 P 1 1.00
     Exponent=  5.8285615250D-01 Coefficients=  1.0000000000D+00
 P 1 1.00
     Exponent=  1.3491500000D-01 Coefficients=  1.0000000000D+00
 D 4 1.00
     Exponent=  6.1996675034D+01 Coefficients=  1.1971972255D-02
     Exponent=  1.7873732552D+01 Coefficients=  7.3210135410D-02
     Exponent=  6.2744782934D+00 Coefficients=  2.3103094314D-01
     Exponent=  2.3552337175D+00 Coefficients=  3.9910706494D-01
 D 1 1.00
     Exponent=  8.5432239901D-01 Coefficients=  4.1391589765D-01
 D 1 1.00
     Exponent=  2.7869254413D-01 Coefficients=  2.1909269782D-01
 D 1 1.00
     Exponent=  9.1000000000D-02 Coefficients=  1.0000000000D+00
 F 1 1.00
     Exponent=  1.5980000000D+00 Coefficients=  1.0000000000D+00
 ****
 Centers:      29     30
 S 6 1.00
     Exponent=  1.9730800647D+04 Coefficients=  2.1887984991D-04
     Exponent=  2.9578958745D+03 Coefficients=  1.6960708803D-03
     Exponent=  6.7322133595D+02 Coefficients=  8.7954603538D-03
     Exponent=  1.9068249494D+02 Coefficients=  3.5359382605D-02
     Exponent=  6.2295441898D+01 Coefficients=  1.1095789217D-01
     Exponent=  2.2654161182D+01 Coefficients=  2.4982972552D-01
 S 2 1.00
     Exponent=  8.9791477428D+00 Coefficients=  4.0623896148D-01
     Exponent=  3.6863002370D+00 Coefficients=  2.4338217176D-01
 S 1 1.00
     Exponent=  8.4660076805D-01 Coefficients=  1.0000000000D+00
 S 1 1.00
     Exponent=  3.3647133771D-01 Coefficients=  1.0000000000D+00
 S 1 1.00
     Exponent=  1.3647653675D-01 Coefficients=  1.0000000000D+00
 P 4 1.00
     Exponent=  4.9200380510D+01 Coefficients=  5.5552416751D-03
     Exponent=  1.1346790537D+01 Coefficients=  3.8052379723D-02
     Exponent=  3.4273972411D+00 Coefficients=  1.4953671029D-01
     Exponent=  1.1785525134D+00 Coefficients=  3.4949305230D-01
 P 1 1.00
     Exponent=  4.1642204972D-01 Coefficients=  4.5843153697D-01
 P 1 1.00
     Exponent=  1.4260826011D-01 Coefficients=  2.4428771672D-01
 D 1 1.00
     Exponent=  1.6540000000D+00 Coefficients=  1.0000000000D+00
 D 1 1.00
     Exponent=  4.6900000000D-01 Coefficients=  1.0000000000D+00
 F 1 1.00
     Exponent=  1.0930000000D+00 Coefficients=  1.0000000000D+00
 ****
 Ernie: Thresh=  0.10000D-02 Tol=  0.10000D-05 Strict=F.
   939 basis functions,  1610 primitive gaussians,  1080 cartesian basis functions
   140 alpha electrons      126 beta electrons
       nuclear repulsion energy      5041.0436630398 Hartrees.
 IExCor= 4134 DFT=T Ex+Corr=M06L ExCW=0 ScaHFX=  0.000000
 ScaDFX=  1.000000  1.000000  1.000000  1.000000 ScalE2=  1.000000  1.000000
 IRadAn=      5 IRanWt=     -1 IRanGd=            0 ICorTp=0 IEmpDi=  4
 NAtoms=   37 NActive=   37 NUniq=   37 SFac= 1.00D+00 NAtFMM=   60 NAOKFM=F Big=F
 Integral buffers will be    131072 words long.
 Raffenetti 2 integral format.
 Two-electron integral symmetry is turned off.
 Leave Link  301 at Thu Feb  2 10:08:16 2023, MaxMem= 14763950080 cpu:               0.1 elap:               1.6
 (Enter /software/commercial/gaussian/g16/AVX2/g16/l302.exe)
 NPDir=0 NMtPBC=     1 NCelOv=     1 NCel=       1 NClECP=     1 NCelD=      1
         NCelK=      1 NCelE2=     1 NClLst=     1 CellRange=     0.0.
 One-electron integrals computed using PRISM.
 NBasis=   939 RedAO= T EigKep=  1.11D-04  NBF=   939
 NBsUse=   939 1.00D-06 EigRej= -1.00D+00 NBFU=   939
 Precomputing XC quadrature grid using
 IXCGrd= 4 IRadAn=           5 IRanWt=          -1 IRanGd=           0 AccXCQ= 0.00D+00.
 Generated NRdTot=       0 NPtTot=           0 NUsed=           0 NTot=          32
 NSgBfM=  1062  1062  1062  1062  1062 MxSgAt=    37 MxSgA2=    37.
 Leave Link  302 at Thu Feb  2 10:08:19 2023, MaxMem= 14763950080 cpu:               3.2 elap:               2.8
 (Enter /software/commercial/gaussian/g16/AVX2/g16/l303.exe)
 DipDrv:  MaxL=1.
 Leave Link  303 at Thu Feb  2 10:08:23 2023, MaxMem= 14763950080 cpu:               0.2 elap:               1.2
 (Enter /software/commercial/gaussian/g16/AVX2/g16/l401.exe)
 ExpMin= 4.20D-02 ExpMax= 3.01D+05 ExpMxC= 2.91D+03 IAcc=3 IRadAn=         5 AccDes= 0.00D+00
 Harris functional with IExCor= 1009 and IRadAn=       5 diagonalized for initial guess.
 HarFok:  IExCor= 1009 AccDes= 0.00D+00 IRadAn=         5 IDoV= 1 UseB2=F ITyADJ=14
 ICtDFT=  3500011 ScaDFX=  1.000000  1.000000  1.000000  1.000000
 FoFCou: FMM=F IPFlag=           0 FMFlag=      100000 FMFlg1=           0
         NFxFlg=           0 DoJE=T BraDBF=F KetDBF=T FulRan=T
         wScrn=  0.000000 ICntrl=       500 IOpCl=  0 I1Cent=   200000004 NGrid=           0
         NMat0=    1 NMatS0=      1 NMatT0=    0 NMatD0=    1 NMtDS0=    0 NMtDT0=    0
 Symmetry not used in FoFCou.
 Harris En= -5337.35598650457    
 JPrj=0 DoOrth=F DoCkMO=F.
 Initial guess <Sx>= 0.0000 <Sy>= 0.0000 <Sz>= 7.0000 <S**2>=56.0000 S= 7.0000
 Leave Link  401 at Thu Feb  2 10:08:43 2023, MaxMem= 14763950080 cpu:              34.8 elap:              19.1
 (Enter /software/commercial/gaussian/g16/AVX2/g16/l502.exe)
 Two-electron integral symmetry not used.
 UHF open shell SCF:
 Using DIIS extrapolation, IDIIS=  1040.
 NGot= 14763950080 LenX= 14761603162 LenY= 14760435682
 Requested convergence on RMS density matrix=1.00D-08 within 150 cycles.
 Requested convergence on MAX density matrix=1.00D-06.
 Requested convergence on             energy=1.00D-06.
 No special actions if energy rises.
 Fock matrices will be formed incrementally for  20 cycles.

 Cycle   1  Pass 1  IDiag  1:
 FoFJK:  IHMeth= 1 ICntrl=     500 DoSepK=F KAlg= 0 I1Cent=           0 FoldK=F
 IRaf= 750000000 NMat=       1 IRICut=       1 DoRegI=T DoRafI=F ISym2E= 0 IDoP0=0 IntGTp=1.
 FoFCou: FMM=F IPFlag=           0 FMFlag=      100000 FMFlg1=           0
         NFxFlg=           0 DoJE=T BraDBF=F KetDBF=F FulRan=T
         wScrn=  0.000000 ICntrl=       500 IOpCl=  0 I1Cent=           0 NGrid=           0
         NMat0=    1 NMatS0=      1 NMatT0=    0 NMatD0=    1 NMtDS0=    0 NMtDT0=    0
 Symmetry not used in FoFCou.
 E= -5338.66536237787    
 DIIS: error= 3.56D-02 at cycle   1 NSaved=   1.
 NSaved= 1 IEnMin= 1 EnMin= -5338.66536237787     IErMin= 1 ErrMin= 3.56D-02
 ErrMax= 3.56D-02  0.00D+00 EMaxC= 1.00D-01 BMatC= 8.91D+00 BMatP= 8.91D+00
 IDIUse=3 WtCom= 6.44D-01 WtEn= 3.56D-01
 Coeff-Com:  0.100D+01
 Coeff-En:   0.100D+01
 Coeff:      0.100D+01
 Gap=     0.422 Goal=   None    Shift=    0.000
 Gap=     0.015 Goal=   None    Shift=    0.000
 GapD=    0.015 DampG=0.250 DampE=0.250 DampFc=0.1250 IDamp=-1.
 Damping current iteration by 1.25D-01
 RMSDP=2.98D-03 MaxDP=4.57D-01              OVMax= 8.41D-01

 Cycle   2  Pass 1  IDiag  1:
 RMSU=  3.72D-04    CP:  9.98D-01
 E= -5338.88264994079     Delta-E=       -0.217287562920 Rises=F Damp=T
 DIIS: error= 1.86D-02 at cycle   2 NSaved=   2.
 NSaved= 2 IEnMin= 2 EnMin= -5338.88264994079     IErMin= 2 ErrMin= 1.86D-02
 ErrMax= 1.86D-02  0.00D+00 EMaxC= 1.00D-01 BMatC= 2.51D+00 BMatP= 8.91D+00
 IDIUse=3 WtCom= 8.14D-01 WtEn= 1.86D-01
 Coeff-Com: -0.394D+00 0.139D+01
 Coeff-En:   0.270D+00 0.730D+00
 Coeff:     -0.270D+00 0.127D+01
 Gap=     0.059 Goal=   None    Shift=    0.000
 Gap=     0.008 Goal=   None    Shift=    0.000
 RMSDP=2.15D-03 MaxDP=1.82D-01 DE=-2.17D-01 OVMax= 9.78D-01

 Cycle   3  Pass 1  IDiag  1:
 RMSU=  2.15D-03    CP:  9.84D-01  1.46D+00
 E= -5334.44270996082     Delta-E=        4.439939979975 Rises=F Damp=F
 DIIS: error= 7.57D-02 at cycle   3 NSaved=   3.
 NSaved= 3 IEnMin= 2 EnMin= -5338.88264994079     IErMin= 2 ErrMin= 1.86D-02
 ErrMax= 7.57D-02  0.00D+00 EMaxC= 1.00D-01 BMatC= 1.96D+01 BMatP= 2.51D+00
 IDIUse=2 WtCom= 0.00D+00 WtEn= 1.00D+00
 EnCoef did     5 forward-backward iterations
 Coeff-En:   0.153D+00 0.768D+00 0.792D-01
 Coeff:      0.153D+00 0.768D+00 0.792D-01
 Gap=     0.074 Goal=   None    Shift=    0.000
 Gap=     0.009 Goal=   None    Shift=    0.000
 RMSDP=2.10D-03 MaxDP=2.03D-01 DE= 4.44D+00 OVMax= 8.46D-01

 Cycle   4  Pass 1  IDiag  1:
 RMSU=  1.01D-03    CP:  9.99D-01  2.81D+00  1.77D-01
 E= -5338.28459664733     Delta-E=       -3.841886686512 Rises=F Damp=F
 DIIS: error= 6.96D-02 at cycle   4 NSaved=   4.
 NSaved= 4 IEnMin= 2 EnMin= -5338.88264994079     IErMin= 2 ErrMin= 1.86D-02
 ErrMax= 6.96D-02  0.00D+00 EMaxC= 1.00D-01 BMatC= 9.95D+00 BMatP= 2.51D+00
 IDIUse=2 WtCom= 0.00D+00 WtEn= 1.00D+00
 EnCoef did   100 forward-backward iterations
 Coeff-En:   0.543D+00 0.118D-01 0.609D-02 0.439D+00
 Coeff:      0.543D+00 0.118D-01 0.609D-02 0.439D+00
 Gap=     0.215 Goal=   None    Shift=    0.000
 Gap=     0.082 Goal=   None    Shift=    0.000
 RMSDP=1.05D-03 MaxDP=1.71D-01 DE=-3.84D+00 OVMax= 8.46D-01

 Cycle   5  Pass 1  IDiag  1:
 RMSU=  7.77D-04    CP:  9.99D-01  1.53D+00  2.11D-01  4.82D-01
 E= -5339.27000335660     Delta-E=       -0.985406709273 Rises=F Damp=F
 DIIS: error= 2.65D-02 at cycle   5 NSaved=   5.
 NSaved= 5 IEnMin= 5 EnMin= -5339.27000335660     IErMin= 2 ErrMin= 1.86D-02
 ErrMax= 2.65D-02  0.00D+00 EMaxC= 1.00D-01 BMatC= 2.50D+00 BMatP= 2.51D+00
 IDIUse=3 WtCom= 7.35D-01 WtEn= 2.65D-01
 EnCoef did     6 forward-backward iterations
 Coeff-Com:  0.324D+00 0.296D-01 0.192D-01 0.349D+00 0.278D+00
 Coeff-En:   0.259D+00 0.000D+00 0.000D+00 0.283D+00 0.457D+00
 Coeff:      0.307D+00 0.218D-01 0.141D-01 0.332D+00 0.325D+00
 Gap=     0.236 Goal=   None    Shift=    0.000
 Gap=     0.019 Goal=   None    Shift=    0.000
 RMSDP=9.44D-04 MaxDP=2.53D-01 DE=-9.85D-01 OVMax= 9.81D-01

 Cycle   6  Pass 1  IDiag  1:
 RMSU=  6.83D-04    CP:  1.00D+00  1.43D+00  1.58D-01  5.99D-01  1.90D-01
 E= -5339.21458840971     Delta-E=        0.055414946892 Rises=F Damp=F
 DIIS: error= 2.95D-02 at cycle   6 NSaved=   6.
 NSaved= 6 IEnMin= 5 EnMin= -5339.27000335660     IErMin= 2 ErrMin= 1.86D-02
 ErrMax= 2.95D-02  0.00D+00 EMaxC= 1.00D-01 BMatC= 3.12D+00 BMatP= 2.50D+00
 IDIUse=2 WtCom= 0.00D+00 WtEn= 1.00D+00
 EnCoef did     1 forward-backward iterations
 Coeff-En:   0.000D+00 0.000D+00 0.000D+00 0.443D-03 0.516D+00 0.484D+00
 Coeff:      0.000D+00 0.000D+00 0.000D+00 0.443D-03 0.516D+00 0.484D+00
 Gap=     0.258 Goal=   None    Shift=    0.000
 Gap=     0.012 Goal=   None    Shift=    0.000
 RMSDP=8.37D-04 MaxDP=2.03D-01 DE= 5.54D-02 OVMax= 7.49D-01

 Cycle   7  Pass 1  IDiag  1:
 RMSU=  4.68D-04    CP:  1.00D+00  2.08D+00  1.12D-01  7.41D-01  3.87D-01
                    CP:  1.11D-01
 E= -5339.24102974984     Delta-E=       -0.026441340127 Rises=F Damp=F
 DIIS: error= 4.90D-02 at cycle   7 NSaved=   7.
 NSaved= 7 IEnMin= 5 EnMin= -5339.27000335660     IErMin= 2 ErrMin= 1.86D-02
 ErrMax= 4.90D-02  0.00D+00 EMaxC= 1.00D-01 BMatC= 3.41D+00 BMatP= 2.50D+00
 IDIUse=2 WtCom= 0.00D+00 WtEn= 1.00D+00
 EnCoef did   100 forward-backward iterations
 Coeff-En:   0.000D+00 0.000D+00 0.000D+00 0.343D-03 0.411D+00 0.431D+00
 Coeff-En:   0.157D+00
 Coeff:      0.000D+00 0.000D+00 0.000D+00 0.343D-03 0.411D+00 0.431D+00
 Coeff:      0.157D+00
 Gap=     0.182 Goal=   None    Shift=    0.000
 Gap=     0.018 Goal=   None    Shift=    0.000
 RMSDP=5.32D-04 MaxDP=1.57D-01 DE=-2.64D-02 OVMax= 5.58D-01

 Cycle   8  Pass 1  IDiag  1:
 RMSU=  2.81D-04    CP:  1.00D+00  1.57D+00  1.41D-01  6.42D-01  3.44D-01
                    CP:  4.53D-01  3.29D-01
 E= -5339.71465206649     Delta-E=       -0.473622316655 Rises=F Damp=F
 DIIS: error= 1.08D-02 at cycle   8 NSaved=   8.
 NSaved= 8 IEnMin= 8 EnMin= -5339.71465206649     IErMin= 8 ErrMin= 1.08D-02
 ErrMax= 1.08D-02  0.00D+00 EMaxC= 1.00D-01 BMatC= 2.60D-01 BMatP= 2.50D+00
 IDIUse=3 WtCom= 8.92D-01 WtEn= 1.08D-01
 EnCoef did   100 forward-backward iterations
 Coeff-Com: -0.218D-01 0.395D-01-0.149D-02-0.226D-01 0.285D+00 0.206D+00
 Coeff-Com:  0.101D+00 0.415D+00
 Coeff-En:   0.000D+00 0.000D+00 0.000D+00 0.000D+00 0.173D+00 0.000D+00
 Coeff-En:   0.663D-02 0.820D+00
 Coeff:     -0.194D-01 0.352D-01-0.133D-02-0.201D-01 0.273D+00 0.184D+00
 Coeff:      0.904D-01 0.459D+00
 Gap=     0.179 Goal=   None    Shift=    0.000
 Gap=     0.034 Goal=   None    Shift=    0.000
 RMSDP=5.70D-04 MaxDP=1.96D-01 DE=-4.74D-01 OVMax= 8.01D-01

 Cycle   9  Pass 1  IDiag  1:
 RMSU=  4.92D-04    CP:  1.00D+00  1.66D+00  1.60D-01  5.96D-01  4.00D-01
                    CP:  4.87D-01  2.52D-01  3.02D-02
 E= -5339.31457222728     Delta-E=        0.400079839215 Rises=F Damp=F
 DIIS: error= 3.19D-02 at cycle   9 NSaved=   9.
 NSaved= 9 IEnMin= 8 EnMin= -5339.71465206649     IErMin= 8 ErrMin= 1.08D-02
 ErrMax= 3.19D-02  0.00D+00 EMaxC= 1.00D-01 BMatC= 2.51D+00 BMatP= 2.60D-01
 IDIUse=2 WtCom= 0.00D+00 WtEn= 1.00D+00
 EnCoef did   100 forward-backward iterations
 Coeff-En:   0.000D+00 0.000D+00 0.000D+00 0.000D+00 0.169D+00 0.000D+00
 Coeff-En:   0.433D-02 0.686D+00 0.140D+00
 Coeff:      0.000D+00 0.000D+00 0.000D+00 0.000D+00 0.169D+00 0.000D+00
 Coeff:      0.433D-02 0.686D+00 0.140D+00
 Gap=     0.155 Goal=   None    Shift=    0.000
 Gap=     0.011 Goal=   None    Shift=    0.000
 RMSDP=6.31D-04 MaxDP=2.39D-01 DE= 4.00D-01 OVMax= 9.18D-01

 Cycle  10  Pass 1  IDiag  1:
 RMSU=  1.32D-04    CP:  1.00D+00  1.61D+00  1.51D-01  5.43D-01  8.02D-01
                    CP:  1.21D-01  5.56D-01  1.64D-03  9.77D-02
 E= -5339.52927967461     Delta-E=       -0.214707447329 Rises=F Damp=F
 DIIS: error= 2.65D-02 at cycle  10 NSaved=  10.
 NSaved=10 IEnMin= 8 EnMin= -5339.71465206649     IErMin= 8 ErrMin= 1.08D-02
 ErrMax= 2.65D-02  0.00D+00 EMaxC= 1.00D-01 BMatC= 1.23D+00 BMatP= 2.60D-01
 IDIUse=2 WtCom= 0.00D+00 WtEn= 1.00D+00
 EnCoef did   100 forward-backward iterations
 Coeff-En:   0.000D+00 0.000D+00 0.000D+00 0.000D+00 0.305D-02 0.000D+00
 Coeff-En:   0.000D+00 0.646D+00 0.961D-01 0.255D+00
 Coeff:      0.000D+00 0.000D+00 0.000D+00 0.000D+00 0.305D-02 0.000D+00
 Coeff:      0.000D+00 0.646D+00 0.961D-01 0.255D+00
 Gap=     0.148 Goal=   None    Shift=    0.000
 Gap=     0.015 Goal=   None    Shift=    0.000
 RMSDP=4.86D-04 MaxDP=1.83D-01 DE=-2.15D-01 OVMax= 7.19D-01

 Cycle  11  Pass 1  IDiag  1:
 RMSU=  2.04D-04    CP:  1.00D+00  1.46D+00  1.57D-01  5.81D-01  4.69D-01
                    CP:  3.89D-01  2.23D-01  4.11D-01  5.20D-01  2.97D-01
 E= -5339.66812735912     Delta-E=       -0.138847684513 Rises=F Damp=F
 DIIS: error= 1.58D-02 at cycle  11 NSaved=  11.
 NSaved=11 IEnMin= 8 EnMin= -5339.71465206649     IErMin= 8 ErrMin= 1.08D-02
 ErrMax= 1.58D-02  0.00D+00 EMaxC= 1.00D-01 BMatC= 5.22D-01 BMatP= 2.60D-01
 IDIUse=2 WtCom= 0.00D+00 WtEn= 1.00D+00
 EnCoef did   100 forward-backward iterations
 Coeff-En:   0.000D+00 0.000D+00 0.000D+00 0.000D+00 0.236D-02 0.000D+00
 Coeff-En:   0.000D+00 0.556D+00 0.000D+00 0.207D+00 0.235D+00
 Coeff:      0.000D+00 0.000D+00 0.000D+00 0.000D+00 0.236D-02 0.000D+00
 Coeff:      0.000D+00 0.556D+00 0.000D+00 0.207D+00 0.235D+00
 Gap=     0.162 Goal=   None    Shift=    0.000
 Gap=     0.016 Goal=   None    Shift=    0.000
 RMSDP=2.60D-04 MaxDP=8.29D-02 DE=-1.39D-01 OVMax= 3.66D-01

 Cycle  12  Pass 1  IDiag  1:
 RMSU=  6.70D-05    CP:  1.00D+00  1.56D+00  1.46D-01  6.04D-01  5.29D-01
                    CP:  2.53D-01  4.57D-01  4.72D-01  1.55D-01  5.46D-01
                    CP:  6.84D-01
 E= -5339.74703478258     Delta-E=       -0.078907423464 Rises=F Damp=F
 DIIS: error= 8.64D-03 at cycle  12 NSaved=  12.
 NSaved=12 IEnMin=12 EnMin= -5339.74703478258     IErMin=12 ErrMin= 8.64D-03
 ErrMax= 8.64D-03  0.00D+00 EMaxC= 1.00D-01 BMatC= 9.17D-02 BMatP= 2.60D-01
 IDIUse=3 WtCom= 9.14D-01 WtEn= 8.64D-02
 EnCoef did     1 forward-backward iterations
 Coeff-Com: -0.124D-02 0.357D-02-0.269D-02-0.628D-03-0.166D-01-0.497D-03
 Coeff-Com: -0.148D-01 0.326D+00-0.360D-01-0.935D-02 0.120D+00 0.632D+00
 Coeff-En:   0.000D+00 0.000D+00 0.000D+00 0.000D+00 0.000D+00 0.000D+00
 Coeff-En:   0.000D+00 0.358D+00 0.000D+00 0.000D+00 0.485D-01 0.594D+00
 Coeff:     -0.113D-02 0.326D-02-0.245D-02-0.574D-03-0.151D-01-0.454D-03
 Coeff:     -0.135D-01 0.329D+00-0.329D-01-0.854D-02 0.114D+00 0.628D+00
 Gap=     0.163 Goal=   None    Shift=    0.000
 Gap=     0.019 Goal=   None    Shift=    0.000
 RMSDP=1.86D-04 MaxDP=6.02D-02 DE=-7.89D-02 OVMax= 2.83D-01

 Cycle  13  Pass 1  IDiag  1:
 RMSU=  4.39D-05    CP:  1.00D+00  1.52D+00  1.43D-01  6.14D-01  4.29D-01
                    CP:  3.64D-01  3.42D-01  8.59D-01  7.35D-02  2.59D-01
                    CP:  4.22D-01  7.68D-01
 E= -5339.76011377097     Delta-E=       -0.013078988388 Rises=F Damp=F
 DIIS: error= 3.25D-03 at cycle  13 NSaved=  13.
 NSaved=13 IEnMin=13 EnMin= -5339.76011377097     IErMin=13 ErrMin= 3.25D-03
 ErrMax= 3.25D-03  0.00D+00 EMaxC= 1.00D-01 BMatC= 2.72D-02 BMatP= 9.17D-02
 IDIUse=3 WtCom= 9.67D-01 WtEn= 3.25D-02
 Coeff-Com:  0.943D-02-0.102D-01-0.300D-02-0.284D-02-0.257D-02-0.964D-02
 Coeff-Com:  0.145D-01 0.140D+00-0.139D-01-0.539D-01 0.764D-01 0.493D+00
 Coeff-Com:  0.362D+00
 Coeff-En:   0.000D+00 0.000D+00 0.000D+00 0.000D+00 0.000D+00 0.000D+00
 Coeff-En:   0.000D+00 0.000D+00 0.000D+00 0.000D+00 0.000D+00 0.329D+00
 Coeff-En:   0.671D+00
 Coeff:      0.912D-02-0.986D-02-0.291D-02-0.274D-02-0.249D-02-0.932D-02
 Coeff:      0.141D-01 0.136D+00-0.134D-01-0.521D-01 0.739D-01 0.488D+00
 Coeff:      0.372D+00
 Gap=     0.164 Goal=   None    Shift=    0.000
 Gap=     0.018 Goal=   None    Shift=    0.000
 RMSDP=6.21D-05 MaxDP=2.10D-02 DE=-1.31D-02 OVMax= 8.84D-02

 Cycle  14  Pass 1  IDiag  1:
 RMSU=  2.04D-05    CP:  1.00D+00  1.53D+00  1.43D-01  6.16D-01  4.46D-01
                    CP:  3.35D-01  3.87D-01  7.49D-01  1.15D-01  2.95D-01
                    CP:  5.47D-01  7.98D-01  5.61D-01
 E= -5339.76510096473     Delta-E=       -0.004987193759 Rises=F Damp=F
 DIIS: error= 1.13D-03 at cycle  14 NSaved=  14.
 NSaved=14 IEnMin=14 EnMin= -5339.76510096473     IErMin=14 ErrMin= 1.13D-03
 ErrMax= 1.13D-03  0.00D+00 EMaxC= 1.00D-01 BMatC= 1.13D-03 BMatP= 2.72D-02
 IDIUse=3 WtCom= 9.89D-01 WtEn= 1.13D-02
 EnCoef did     8 forward-backward iterations
 Coeff-Com:  0.816D-02-0.937D-02-0.117D-02 0.433D-03-0.558D-02-0.936D-02
 Coeff-Com:  0.132D-01 0.221D-01-0.482D-02-0.216D-01 0.430D-01 0.212D+00
 Coeff-Com:  0.311D+00 0.442D+00
 Coeff-En:   0.000D+00 0.000D+00 0.000D+00 0.000D+00 0.000D+00 0.000D+00
 Coeff-En:   0.000D+00 0.000D+00 0.000D+00 0.000D+00 0.000D+00 0.150D-01
 Coeff-En:   0.114D-01 0.974D+00
 Coeff:      0.807D-02-0.926D-02-0.116D-02 0.428D-03-0.551D-02-0.926D-02
 Coeff:      0.130D-01 0.218D-01-0.477D-02-0.214D-01 0.425D-01 0.210D+00
 Coeff:      0.307D+00 0.448D+00
 Gap=     0.166 Goal=   None    Shift=    0.000
 Gap=     0.018 Goal=   None    Shift=    0.000
 RMSDP=1.26D-05 MaxDP=1.55D-03 DE=-4.99D-03 OVMax= 5.14D-03

 Cycle  15  Pass 1  IDiag  1:
 RMSU=  8.56D-06    CP:  1.00D+00  1.53D+00  1.42D-01  6.15D-01  4.45D-01
                    CP:  3.31D-01  3.86D-01  7.53D-01  1.15D-01  3.06D-01
                    CP:  5.42D-01  7.98D-01  6.78D-01  6.67D-01
 E= -5339.76527259594     Delta-E=       -0.000171631211 Rises=F Damp=F
 DIIS: error= 2.90D-04 at cycle  15 NSaved=  15.
 NSaved=15 IEnMin=15 EnMin= -5339.76527259594     IErMin=15 ErrMin= 2.90D-04
 ErrMax= 2.90D-04  0.00D+00 EMaxC= 1.00D-01 BMatC= 2.61D-04 BMatP= 1.13D-03
 IDIUse=3 WtCom= 9.97D-01 WtEn= 2.90D-03
 Coeff-Com:  0.476D-02-0.585D-02-0.951D-04 0.191D-02-0.701D-02-0.311D-02
 Coeff-Com:  0.224D-02-0.139D-01-0.645D-03 0.512D-02 0.130D-01 0.350D-01
 Coeff-Com:  0.858D-01 0.300D+00 0.583D+00
 Coeff-En:   0.000D+00 0.000D+00 0.000D+00 0.000D+00 0.000D+00 0.000D+00
 Coeff-En:   0.000D+00 0.000D+00 0.000D+00 0.000D+00 0.000D+00 0.000D+00
 Coeff-En:   0.000D+00 0.169D+00 0.831D+00
 Coeff:      0.474D-02-0.583D-02-0.949D-04 0.191D-02-0.699D-02-0.310D-02
 Coeff:      0.224D-02-0.138D-01-0.643D-03 0.511D-02 0.130D-01 0.349D-01
 Coeff:      0.855D-01 0.300D+00 0.583D+00
 Gap=     0.166 Goal=   None    Shift=    0.000
 Gap=     0.018 Goal=   None    Shift=    0.000
 RMSDP=1.08D-05 MaxDP=2.87D-03 DE=-1.72D-04 OVMax= 1.49D-02

 Cycle  16  Pass 1  IDiag  1:
 RMSU=  5.06D-06    CP:  1.00D+00  1.53D+00  1.42D-01  6.17D-01  4.39D-01
                    CP:  3.37D-01  3.81D-01  7.52D-01  1.24D-01  3.01D-01
                    CP:  5.50D-01  7.52D-01  6.94D-01  8.12D-01  8.27D-01
 E= -5339.76523158219     Delta-E=        0.000041013747 Rises=F Damp=F
 DIIS: error= 6.23D-04 at cycle  16 NSaved=  16.
 NSaved=16 IEnMin=15 EnMin= -5339.76527259594     IErMin=15 ErrMin= 2.90D-04
 ErrMax= 6.23D-04  0.00D+00 EMaxC= 1.00D-01 BMatC= 4.38D-04 BMatP= 2.61D-04
 IDIUse=3 WtCom= 9.97D-01 WtEn= 2.90D-03
 EnCoef did     6 forward-backward iterations
 Coeff-Com:  0.228D-02-0.264D-02-0.664D-04 0.134D-03 0.651D-03-0.501D-03
 Coeff-Com: -0.112D-03-0.824D-02-0.496D-04-0.833D-03-0.425D-02 0.308D-01
 Coeff-Com:  0.492D-02 0.116D+00 0.385D+00 0.477D+00
 Coeff-En:   0.000D+00 0.000D+00 0.000D+00 0.000D+00 0.000D+00 0.000D+00
 Coeff-En:   0.000D+00 0.000D+00 0.000D+00 0.000D+00 0.000D+00 0.150D-02
 Coeff-En:   0.000D+00 0.750D-01 0.647D+00 0.276D+00
 Coeff:      0.227D-02-0.263D-02-0.662D-04 0.133D-03 0.649D-03-0.499D-03
 Coeff:     -0.112D-03-0.822D-02-0.495D-04-0.831D-03-0.424D-02 0.307D-01
 Coeff:      0.490D-02 0.116D+00 0.385D+00 0.477D+00
 Gap=     0.166 Goal=   None    Shift=    0.000
 Gap=     0.018 Goal=   None    Shift=    0.000
 RMSDP=6.43D-06 MaxDP=1.82D-03 DE= 4.10D-05 OVMax= 9.20D-03

 Cycle  17  Pass 1  IDiag  1:
 RMSU=  2.27D-06    CP:  1.00D+00  1.53D+00  1.42D-01  6.16D-01  4.44D-01
                    CP:  3.33D-01  3.84D-01  7.46D-01  1.22D-01  3.05D-01
                    CP:  5.53D-01  7.79D-01  6.76D-01  8.18D-01  9.45D-01
                    CP:  8.32D-01
 E= -5339.76531264250     Delta-E=       -0.000081060307 Rises=F Damp=F
 DIIS: error= 1.89D-04 at cycle  17 NSaved=  17.
 NSaved=17 IEnMin=17 EnMin= -5339.76531264250     IErMin=17 ErrMin= 1.89D-04
 ErrMax= 1.89D-04  0.00D+00 EMaxC= 1.00D-01 BMatC= 4.95D-05 BMatP= 2.61D-04
 IDIUse=3 WtCom= 9.98D-01 WtEn= 1.89D-03
 Coeff-Com:  0.158D-02-0.177D-02-0.452D-04-0.933D-04 0.156D-02-0.794D-04
 Coeff-Com: -0.661D-03-0.334D-02-0.222D-04-0.180D-02-0.645D-02 0.262D-01
 Coeff-Com: -0.310D-02 0.451D-01 0.193D+00 0.271D+00 0.478D+00
 Coeff-En:   0.000D+00 0.000D+00 0.000D+00 0.000D+00 0.000D+00 0.000D+00
 Coeff-En:   0.000D+00 0.000D+00 0.000D+00 0.000D+00 0.000D+00 0.000D+00
 Coeff-En:   0.000D+00 0.000D+00 0.751D-01 0.000D+00 0.925D+00
 Coeff:      0.158D-02-0.177D-02-0.452D-04-0.931D-04 0.156D-02-0.792D-04
 Coeff:     -0.660D-03-0.333D-02-0.221D-04-0.180D-02-0.644D-02 0.262D-01
 Coeff:     -0.310D-02 0.451D-01 0.193D+00 0.271D+00 0.479D+00
 Gap=     0.165 Goal=   None    Shift=    0.000
 Gap=     0.018 Goal=   None    Shift=    0.000
 RMSDP=1.81D-06 MaxDP=4.44D-04 DE=-8.11D-05 OVMax= 2.53D-03

 Cycle  18  Pass 1  IDiag  1:
 RMSU=  9.46D-07    CP:  1.00D+00  1.53D+00  1.43D-01  6.16D-01  4.45D-01
                    CP:  3.32D-01  3.85D-01  7.46D-01  1.21D-01  3.06D-01
                    CP:  5.52D-01  7.89D-01  6.77D-01  8.22D-01  9.93D-01
                    CP:  9.15D-01  1.25D+00
 E= -5339.76531923765     Delta-E=       -0.000006595155 Rises=F Damp=F
 DIIS: error= 1.13D-04 at cycle  18 NSaved=  18.
 NSaved=18 IEnMin=18 EnMin= -5339.76531923765     IErMin=18 ErrMin= 1.13D-04
 ErrMax= 1.13D-04  0.00D+00 EMaxC= 1.00D-01 BMatC= 1.62D-05 BMatP= 4.95D-05
 IDIUse=3 WtCom= 9.99D-01 WtEn= 1.13D-03
 Coeff-Com:  0.733D-03-0.882D-03-0.957D-05 0.244D-04 0.354D-03 0.319D-06
 Coeff-Com: -0.444D-03 0.933D-03 0.653D-04-0.237D-04-0.269D-02 0.344D-02
 Coeff-Com: -0.235D-02-0.338D-01-0.891D-01-0.158D+00 0.161D+00 0.112D+01
 Coeff-En:   0.000D+00 0.000D+00 0.000D+00 0.000D+00 0.000D+00 0.000D+00
 Coeff-En:   0.000D+00 0.000D+00 0.000D+00 0.000D+00 0.000D+00 0.000D+00
 Coeff-En:   0.000D+00 0.000D+00 0.000D+00 0.000D+00 0.000D+00 0.100D+01
 Coeff:      0.733D-03-0.881D-03-0.956D-05 0.244D-04 0.353D-03 0.319D-06
 Coeff:     -0.444D-03 0.932D-03 0.652D-04-0.237D-04-0.269D-02 0.344D-02
 Coeff:     -0.235D-02-0.337D-01-0.890D-01-0.157D+00 0.161D+00 0.112D+01
 Gap=     0.165 Goal=   None    Shift=    0.000
 Gap=     0.018 Goal=   None    Shift=    0.000
 RMSDP=2.87D-06 MaxDP=4.97D-04 DE=-6.60D-06 OVMax= 4.31D-03

 Cycle  19  Pass 1  IDiag  1:
 RMSU=  6.93D-07    CP:  1.00D+00  1.53D+00  1.43D-01  6.15D-01  4.46D-01
                    CP:  3.31D-01  3.85D-01  7.44D-01  1.21D-01  3.08D-01
                    CP:  5.54D-01  7.97D-01  6.79D-01  8.47D-01  1.11D+00
                    CP:  1.11D+00  1.96D+00  1.71D+00
 E= -5339.76532241669     Delta-E=       -0.000003179033 Rises=F Damp=F
 DIIS: error= 2.40D-05 at cycle  19 NSaved=  19.
 NSaved=19 IEnMin=19 EnMin= -5339.76532241669     IErMin=19 ErrMin= 2.40D-05
 ErrMax= 2.40D-05  0.00D+00 EMaxC= 1.00D-01 BMatC= 1.46D-06 BMatP= 1.62D-05
 IDIUse=1 WtCom= 1.00D+00 WtEn= 0.00D+00
 Coeff-Com:  0.345D-03-0.436D-03 0.505D-05 0.293D-04-0.261D-04 0.305D-05
 Coeff-Com: -0.171D-03 0.144D-02 0.376D-04 0.231D-03-0.707D-03-0.237D-02
 Coeff-Com:  0.212D-03-0.277D-01-0.871D-01-0.159D+00-0.228D-02 0.759D+00
 Coeff-Com:  0.519D+00
 Coeff:      0.345D-03-0.436D-03 0.505D-05 0.293D-04-0.261D-04 0.305D-05
 Coeff:     -0.171D-03 0.144D-02 0.376D-04 0.231D-03-0.707D-03-0.237D-02
 Coeff:      0.212D-03-0.277D-01-0.871D-01-0.159D+00-0.228D-02 0.759D+00
 Coeff:      0.519D+00
 Gap=     0.165 Goal=   None    Shift=    0.000
 Gap=     0.018 Goal=   None    Shift=    0.000
 RMSDP=1.08D-06 MaxDP=1.81D-04 DE=-3.18D-06 OVMax= 1.59D-03

 Cycle  20  Pass 1  IDiag  1:
 RMSU=  3.53D-07    CP:  1.00D+00  1.53D+00  1.43D-01  6.15D-01  4.46D-01
                    CP:  3.31D-01  3.85D-01  7.44D-01  1.20D-01  3.08D-01
                    CP:  5.53D-01  8.00D-01  6.82D-01  8.56D-01  1.15D+00
                    CP:  1.18D+00  2.26D+00  2.09D+00  1.15D+00
 E= -5339.76532268212     Delta-E=       -0.000000265434 Rises=F Damp=F
 DIIS: error= 1.99D-05 at cycle  20 NSaved=  20.
 NSaved=20 IEnMin=20 EnMin= -5339.76532268212     IErMin=20 ErrMin= 1.99D-05
 ErrMax= 1.99D-05  0.00D+00 EMaxC= 1.00D-01 BMatC= 6.76D-07 BMatP= 1.46D-06
 IDIUse=1 WtCom= 1.00D+00 WtEn= 0.00D+00
 Coeff-Com:  0.246D-04-0.413D-04 0.159D-04-0.520D-05-0.126D-03 0.582D-05
 Coeff-Com:  0.335D-04 0.856D-03 0.178D-04 0.104D-03 0.639D-03-0.351D-02
 Coeff-Com:  0.844D-03-0.630D-02-0.246D-01-0.453D-01-0.657D-01 0.112D+00
 Coeff-Com:  0.402D+00 0.630D+00
 Coeff:      0.246D-04-0.413D-04 0.159D-04-0.520D-05-0.126D-03 0.582D-05
 Coeff:      0.335D-04 0.856D-03 0.178D-04 0.104D-03 0.639D-03-0.351D-02
 Coeff:      0.844D-03-0.630D-02-0.246D-01-0.453D-01-0.657D-01 0.112D+00
 Coeff:      0.402D+00 0.630D+00
 Gap=     0.165 Goal=   None    Shift=    0.000
 Gap=     0.018 Goal=   None    Shift=    0.000
 RMSDP=8.44D-07 MaxDP=1.42D-04 DE=-2.65D-07 OVMax= 1.27D-03

 Cycle  21  Pass 1  IDiag  1:
 Restarting incremental Fock formation.
 E= -5339.76532281234     Delta-E=       -0.000000130221 Rises=F Damp=F
 DIIS: error= 1.55D-05 at cycle  21 NSaved=  20.
 NSaved=20 IEnMin=20 EnMin= -5339.76532281234     IErMin=20 ErrMin= 1.55D-05
 ErrMax= 1.55D-05  0.00D+00 EMaxC= 1.00D-01 BMatC= 3.30D-07 BMatP= 6.76D-07
 IDIUse=1 WtCom= 1.00D+00 WtEn= 0.00D+00
 Coeff-Com: -0.728D-04 0.807D-04-0.163D-04-0.367D-04 0.970D-05 0.909D-04
 Coeff-Com:  0.301D-03 0.928D-05-0.934D-04 0.841D-03-0.207D-02 0.761D-03
 Coeff-Com:  0.346D-02 0.711D-02 0.194D-01-0.458D-01-0.148D+00 0.120D+00
 Coeff-Com:  0.455D+00 0.589D+00
 Coeff:     -0.728D-04 0.807D-04-0.163D-04-0.367D-04 0.970D-05 0.909D-04
 Coeff:      0.301D-03 0.928D-05-0.934D-04 0.841D-03-0.207D-02 0.761D-03
 Coeff:      0.346D-02 0.711D-02 0.194D-01-0.458D-01-0.148D+00 0.120D+00
 Coeff:      0.455D+00 0.589D+00
 Gap=     0.165 Goal=   None    Shift=    0.000
 Gap=     0.018 Goal=   None    Shift=    0.000
 RMSDP=5.91D-07 MaxDP=9.89D-05 DE=-1.30D-07 OVMax= 8.94D-04

 Cycle  22  Pass 1  IDiag  1:
 RMSU=  5.91D-07    CP:  1.00D+00
 E= -5339.76532286120     Delta-E=       -0.000000048858 Rises=F Damp=F
 DIIS: error= 1.10D-05 at cycle  22 NSaved=  20.
 NSaved=20 IEnMin=20 EnMin= -5339.76532286120     IErMin=20 ErrMin= 1.10D-05
 ErrMax= 1.10D-05  0.00D+00 EMaxC= 1.00D-01 BMatC= 2.34D-07 BMatP= 3.30D-07
 IDIUse=1 WtCom= 1.00D+00 WtEn= 0.00D+00
 Coeff-Com: -0.125D-03 0.154D-03-0.369D-04 0.351D-04 0.108D-04-0.368D-03
 Coeff-Com: -0.991D-05 0.747D-04 0.475D-03-0.796D-03-0.136D-02 0.463D-02
 Coeff-Com:  0.152D-01 0.426D-01 0.120D-01-0.161D+00-0.145D+00-0.636D-01
 Coeff-Com:  0.395D+00 0.901D+00
 Coeff:     -0.125D-03 0.154D-03-0.369D-04 0.351D-04 0.108D-04-0.368D-03
 Coeff:     -0.991D-05 0.747D-04 0.475D-03-0.796D-03-0.136D-02 0.463D-02
 Coeff:      0.152D-01 0.426D-01 0.120D-01-0.161D+00-0.145D+00-0.636D-01
 Coeff:      0.395D+00 0.901D+00
 Gap=     0.165 Goal=   None    Shift=    0.000
 Gap=     0.018 Goal=   None    Shift=    0.000
 RMSDP=6.97D-07 MaxDP=1.13D-04 DE=-4.89D-08 OVMax= 1.07D-03

 Cycle  23  Pass 1  IDiag  1:
 RMSU=  3.05D-07    CP:  1.00D+00  2.06D+00
 E= -5339.76532292619     Delta-E=       -0.000000064992 Rises=F Damp=F
 DIIS: error= 2.72D-06 at cycle  23 NSaved=  20.
 NSaved=20 IEnMin=20 EnMin= -5339.76532292619     IErMin=20 ErrMin= 2.72D-06
 ErrMax= 2.72D-06  0.00D+00 EMaxC= 1.00D-01 BMatC= 2.48D-08 BMatP= 2.34D-07
 IDIUse=1 WtCom= 1.00D+00 WtEn= 0.00D+00
 Coeff-Com: -0.170D-05 0.188D-04 0.122D-05 0.183D-04-0.320D-03-0.861D-05
 Coeff-Com: -0.142D-04-0.778D-04 0.615D-03-0.617D-03 0.150D-02 0.559D-02
 Coeff-Com:  0.180D-01 0.283D-01-0.118D-01-0.935D-01-0.159D+00 0.429D-01
 Coeff-Com:  0.488D+00 0.680D+00
 Coeff:     -0.170D-05 0.188D-04 0.122D-05 0.183D-04-0.320D-03-0.861D-05
 Coeff:     -0.142D-04-0.778D-04 0.615D-03-0.617D-03 0.150D-02 0.559D-02
 Coeff:      0.180D-01 0.283D-01-0.118D-01-0.935D-01-0.159D+00 0.429D-01
 Coeff:      0.488D+00 0.680D+00
 Gap=     0.165 Goal=   None    Shift=    0.000
 Gap=     0.018 Goal=   None    Shift=    0.000
 RMSDP=1.67D-07 MaxDP=2.06D-05 DE=-6.50D-08 OVMax= 2.34D-04

 Cycle  24  Pass 1  IDiag  1:
 RMSU=  1.03D-07    CP:  1.00D+00  2.23D+00  1.27D+00
 E= -5339.76532293047     Delta-E=       -0.000000004278 Rises=F Damp=F
 DIIS: error= 2.35D-06 at cycle  24 NSaved=  20.
 NSaved=20 IEnMin=20 EnMin= -5339.76532293047     IErMin=20 ErrMin= 2.35D-06
 ErrMax= 2.35D-06  0.00D+00 EMaxC= 1.00D-01 BMatC= 1.75D-08 BMatP= 2.48D-08
 IDIUse=1 WtCom= 1.00D+00 WtEn= 0.00D+00
 Coeff-Com:  0.169D-04-0.742D-05 0.244D-04-0.732D-04 0.578D-05-0.602D-04
 Coeff-Com: -0.134D-03 0.519D-03-0.146D-03 0.110D-04 0.775D-03 0.540D-02
 Coeff-Com:  0.118D-01-0.599D-02-0.687D-01-0.136D+00-0.728D-01 0.151D+00
 Coeff-Com:  0.514D+00 0.601D+00
 Coeff:      0.169D-04-0.742D-05 0.244D-04-0.732D-04 0.578D-05-0.602D-04
 Coeff:     -0.134D-03 0.519D-03-0.146D-03 0.110D-04 0.775D-03 0.540D-02
 Coeff:      0.118D-01-0.599D-02-0.687D-01-0.136D+00-0.728D-01 0.151D+00
 Coeff:      0.514D+00 0.601D+00
 Gap=     0.165 Goal=   None    Shift=    0.000
 Gap=     0.018 Goal=   None    Shift=    0.000
 RMSDP=4.02D-07 MaxDP=6.47D-05 DE=-4.28D-09 OVMax= 6.17D-04

 Cycle  25  Pass 1  IDiag  1:
 RMSU=  8.73D-08    CP:  1.00D+00  2.88D+00  1.55D+00  1.19D+00
 E= -5339.76532293838     Delta-E=       -0.000000007913 Rises=F Damp=F
 DIIS: error= 1.09D-06 at cycle  25 NSaved=  20.
 NSaved=20 IEnMin=20 EnMin= -5339.76532293838     IErMin=20 ErrMin= 1.09D-06
 ErrMax= 1.09D-06  0.00D+00 EMaxC= 1.00D-01 BMatC= 3.16D-09 BMatP= 1.75D-08
 IDIUse=1 WtCom= 1.00D+00 WtEn= 0.00D+00
 Coeff-Com:  0.118D-04 0.803D-05-0.885D-05 0.624D-05-0.271D-04-0.914D-04
 Coeff-Com:  0.178D-03-0.190D-04-0.206D-03-0.108D-03 0.129D-02 0.383D-02
 Coeff-Com: -0.202D-02-0.296D-01-0.610D-01-0.518D-01 0.304D-01 0.214D+00
 Coeff-Com:  0.350D+00 0.545D+00
 Coeff:      0.118D-04 0.803D-05-0.885D-05 0.624D-05-0.271D-04-0.914D-04
 Coeff:      0.178D-03-0.190D-04-0.206D-03-0.108D-03 0.129D-02 0.383D-02
 Coeff:     -0.202D-02-0.296D-01-0.610D-01-0.518D-01 0.304D-01 0.214D+00
 Coeff:      0.350D+00 0.545D+00
 Gap=     0.165 Goal=   None    Shift=    0.000
 Gap=     0.018 Goal=   None    Shift=    0.000
 RMSDP=9.87D-08 MaxDP=1.40D-05 DE=-7.91D-09 OVMax= 1.51D-04

 Cycle  26  Pass 1  IDiag  1:
 RMSU=  4.05D-08    CP:  1.00D+00  3.00D+00  1.62D+00  1.53D+00  1.16D+00
 E= -5339.76532293966     Delta-E=       -0.000000001271 Rises=F Damp=F
 DIIS: error= 4.15D-07 at cycle  26 NSaved=  20.
 NSaved=20 IEnMin=20 EnMin= -5339.76532293966     IErMin=20 ErrMin= 4.15D-07
 ErrMax= 4.15D-07  0.00D+00 EMaxC= 1.00D-01 BMatC= 1.06D-09 BMatP= 3.16D-09
 IDIUse=1 WtCom= 1.00D+00 WtEn= 0.00D+00
 Coeff-Com: -0.375D-05 0.301D-04-0.189D-05 0.151D-04 0.185D-04-0.166D-03
 Coeff-Com:  0.170D-03-0.125D-03-0.800D-03-0.253D-02-0.438D-02 0.177D-02
 Coeff-Com:  0.172D-01 0.274D-01-0.109D-01-0.666D-01-0.852D-01-0.270D-01
 Coeff-Com:  0.479D+00 0.672D+00
 Coeff:     -0.375D-05 0.301D-04-0.189D-05 0.151D-04 0.185D-04-0.166D-03
 Coeff:      0.170D-03-0.125D-03-0.800D-03-0.253D-02-0.438D-02 0.177D-02
 Coeff:      0.172D-01 0.274D-01-0.109D-01-0.666D-01-0.852D-01-0.270D-01
 Coeff:      0.479D+00 0.672D+00
 Gap=     0.165 Goal=   None    Shift=    0.000
 Gap=     0.018 Goal=   None    Shift=    0.000
 RMSDP=9.79D-08 MaxDP=1.63D-05 DE=-1.27D-09 OVMax= 1.51D-04

 Cycle  27  Pass 1  IDiag  1:
 RMSU=  5.64D-08    CP:  1.00D+00  3.00D+00  1.72D+00  2.02D+00  1.50D+00
                    CP:  2.12D+00
 E= -5339.76532294016     Delta-E=       -0.000000000500 Rises=F Damp=F
 DIIS: error= 1.14D-06 at cycle  27 NSaved=  20.
 NSaved=20 IEnMin=20 EnMin= -5339.76532294016     IErMin=19 ErrMin= 4.15D-07
 ErrMax= 1.14D-06  0.00D+00 EMaxC= 1.00D-01 BMatC= 1.59D-09 BMatP= 1.06D-09
 IDIUse=1 WtCom= 1.00D+00 WtEn= 0.00D+00
 Coeff-Com: -0.553D-05-0.162D-05 0.782D-05 0.194D-04-0.742D-04 0.603D-04
 Coeff-Com:  0.756D-04-0.855D-04-0.161D-02-0.301D-02 0.196D-03 0.157D-01
 Coeff-Com:  0.272D-01 0.848D-02-0.320D-01-0.901D-01-0.102D+00 0.272D-01
 Coeff-Com:  0.258D+00 0.892D+00
 Coeff:     -0.553D-05-0.162D-05 0.782D-05 0.194D-04-0.742D-04 0.603D-04
 Coeff:      0.756D-04-0.855D-04-0.161D-02-0.301D-02 0.196D-03 0.157D-01
 Coeff:      0.272D-01 0.848D-02-0.320D-01-0.901D-01-0.102D+00 0.272D-01
 Coeff:      0.258D+00 0.892D+00
 Gap=     0.165 Goal=   None    Shift=    0.000
 Gap=     0.018 Goal=   None    Shift=    0.000
 RMSDP=7.79D-08 MaxDP=1.39D-05 DE=-5.00D-10 OVMax= 1.20D-04

 Cycle  28  Pass 1  IDiag  1:
 RMSU=  1.73D-08    CP:  1.00D+00  3.00D+00  1.78D+00  2.48D+00  1.93D+00
                    CP:  2.90D+00  1.48D+00
 E= -5339.76532294081     Delta-E=       -0.000000000651 Rises=F Damp=F
 DIIS: error= 3.62D-07 at cycle  28 NSaved=  20.
 NSaved=20 IEnMin=20 EnMin= -5339.76532294081     IErMin=20 ErrMin= 3.62D-07
 ErrMax= 3.62D-07  0.00D+00 EMaxC= 1.00D-01 BMatC= 4.23D-10 BMatP= 1.06D-09
 IDIUse=1 WtCom= 1.00D+00 WtEn= 0.00D+00
 Coeff-Com: -0.207D-04-0.105D-04 0.160D-04 0.129D-03 0.112D-04 0.274D-03
 Coeff-Com:  0.649D-03-0.522D-05-0.866D-03-0.151D-02 0.714D-02 0.153D-01
 Coeff-Com:  0.260D-01 0.197D-01-0.431D-01-0.116D+00-0.492D+00-0.432D+00
 Coeff-Com:  0.104D+01 0.982D+00
 Coeff:     -0.207D-04-0.105D-04 0.160D-04 0.129D-03 0.112D-04 0.274D-03
 Coeff:      0.649D-03-0.522D-05-0.866D-03-0.151D-02 0.714D-02 0.153D-01
 Coeff:      0.260D-01 0.197D-01-0.431D-01-0.116D+00-0.492D+00-0.432D+00
 Coeff:      0.104D+01 0.982D+00
 Gap=     0.165 Goal=   None    Shift=    0.000
 Gap=     0.018 Goal=   None    Shift=    0.000
 RMSDP=1.36D-07 MaxDP=2.45D-05 DE=-6.51D-10 OVMax= 2.10D-04

 Cycle  29  Pass 1  IDiag  1:
 RMSU=  6.86D-08    CP:  1.00D+00  3.00D+00  1.87D+00  3.00D+00  2.67D+00
                    CP:  3.00D+00  2.27D+00  2.21D+00
 E= -5339.76532294125     Delta-E=       -0.000000000444 Rises=F Damp=F
 DIIS: error= 4.64D-07 at cycle  29 NSaved=  20.
 NSaved=20 IEnMin=20 EnMin= -5339.76532294125     IErMin=19 ErrMin= 3.62D-07
 ErrMax= 4.64D-07  0.00D+00 EMaxC= 1.00D-01 BMatC= 3.83D-10 BMatP= 4.23D-10
 IDIUse=1 WtCom= 1.00D+00 WtEn= 0.00D+00
 Coeff-Com: -0.163D-04 0.750D-05 0.525D-04-0.665D-04 0.854D-04 0.345D-03
 Coeff-Com:  0.789D-03 0.139D-02 0.263D-03-0.321D-02-0.503D-02 0.784D-02
 Coeff-Com:  0.216D-01 0.813D-02-0.395D-01-0.231D+00-0.230D+00 0.262D+00
 Coeff-Com:  0.431D+00 0.776D+00
 Coeff:     -0.163D-04 0.750D-05 0.525D-04-0.665D-04 0.854D-04 0.345D-03
 Coeff:      0.789D-03 0.139D-02 0.263D-03-0.321D-02-0.503D-02 0.784D-02
 Coeff:      0.216D-01 0.813D-02-0.395D-01-0.231D+00-0.230D+00 0.262D+00
 Coeff:      0.431D+00 0.776D+00
 Gap=     0.165 Goal=   None    Shift=    0.000
 Gap=     0.018 Goal=   None    Shift=    0.000
 RMSDP=4.36D-08 MaxDP=8.12D-06 DE=-4.44D-10 OVMax= 6.72D-05

 Cycle  30  Pass 1  IDiag  1:
 RMSU=  1.57D-08    CP:  1.00D+00  3.00D+00  1.91D+00  3.00D+00  2.86D+00
                    CP:  3.00D+00  2.55D+00  2.60D+00  1.44D+00
 E= -5339.76532294148     Delta-E=       -0.000000000226 Rises=F Damp=F
 DIIS: error= 3.52D-07 at cycle  30 NSaved=  20.
 NSaved=20 IEnMin=20 EnMin= -5339.76532294148     IErMin=20 ErrMin= 3.52D-07
 ErrMax= 3.52D-07  0.00D+00 EMaxC= 1.00D-01 BMatC= 1.54D-10 BMatP= 3.83D-10
 IDIUse=1 WtCom= 1.00D+00 WtEn= 0.00D+00
 Coeff-Com: -0.508D-05 0.127D-04-0.575D-04-0.326D-04-0.186D-05 0.576D-03
 Coeff-Com:  0.161D-02 0.130D-02-0.536D-02-0.111D-01-0.299D-02 0.139D-01
 Coeff-Com:  0.295D-01 0.952D-02-0.562D-01-0.808D-01-0.836D-01 0.756D-01
 Coeff-Com:  0.552D+00 0.556D+00
 Coeff:     -0.508D-05 0.127D-04-0.575D-04-0.326D-04-0.186D-05 0.576D-03
 Coeff:      0.161D-02 0.130D-02-0.536D-02-0.111D-01-0.299D-02 0.139D-01
 Coeff:      0.295D-01 0.952D-02-0.562D-01-0.808D-01-0.836D-01 0.756D-01
 Coeff:      0.552D+00 0.556D+00
 Gap=     0.165 Goal=   None    Shift=    0.000
 Gap=     0.018 Goal=   None    Shift=    0.000
 RMSDP=1.82D-08 MaxDP=3.44D-06 DE=-2.26D-10 OVMax= 2.80D-05

 Cycle  31  Pass 1  IDiag  1:
 RMSU=  3.80D-09    CP:  1.00D+00  3.00D+00  1.93D+00  3.00D+00  2.92D+00
                    CP:  3.00D+00  2.63D+00  2.75D+00  1.65D+00  1.35D+00
 E= -5339.76532294145     Delta-E=        0.000000000031 Rises=F Damp=F
 DIIS: error= 1.71D-07 at cycle  31 NSaved=  20.
 NSaved=20 IEnMin=19 EnMin= -5339.76532294148     IErMin=20 ErrMin= 1.71D-07
 ErrMax= 1.71D-07  0.00D+00 EMaxC= 1.00D-01 BMatC= 4.35D-11 BMatP= 1.54D-10
 IDIUse=1 WtCom= 1.00D+00 WtEn= 0.00D+00
 Coeff-Com: -0.964D-05-0.161D-04-0.636D-05-0.121D-04 0.300D-03 0.744D-03
 Coeff-Com:  0.609D-03-0.252D-02-0.549D-02-0.269D-02 0.452D-02 0.154D-01
 Coeff-Com:  0.105D-01 0.156D-01 0.461D-02-0.119D+00-0.545D-01 0.178D+00
 Coeff-Com:  0.416D+00 0.538D+00
 Coeff:     -0.964D-05-0.161D-04-0.636D-05-0.121D-04 0.300D-03 0.744D-03
 Coeff:      0.609D-03-0.252D-02-0.549D-02-0.269D-02 0.452D-02 0.154D-01
 Coeff:      0.105D-01 0.156D-01 0.461D-02-0.119D+00-0.545D-01 0.178D+00
 Coeff:      0.416D+00 0.538D+00
 Gap=     0.165 Goal=   None    Shift=    0.000
 Gap=     0.018 Goal=   None    Shift=    0.000
 RMSDP=7.98D-09 MaxDP=1.35D-06 DE= 3.09D-11 OVMax= 1.22D-05

 Cycle  32  Pass 1  IDiag  1:
 RMSU=  2.77D-09    CP:  1.00D+00  3.00D+00  1.93D+00  3.00D+00  2.94D+00
                    CP:  3.00D+00  2.64D+00  2.78D+00  1.75D+00  1.48D+00
                    CP:  1.43D+00
 E= -5339.76532294147     Delta-E=       -0.000000000024 Rises=F Damp=F
 DIIS: error= 4.78D-08 at cycle  32 NSaved=  20.
 NSaved=20 IEnMin=18 EnMin= -5339.76532294148     IErMin=20 ErrMin= 4.78D-08
 ErrMax= 4.78D-08  0.00D+00 EMaxC= 1.00D-01 BMatC= 5.11D-12 BMatP= 4.35D-11
 IDIUse=1 WtCom= 1.00D+00 WtEn= 0.00D+00
 Coeff-Com:  0.990D-05 0.198D-04 0.406D-04 0.442D-04-0.564D-04-0.245D-03
 Coeff-Com:  0.202D-03 0.709D-03 0.113D-02 0.601D-03-0.211D-02-0.213D-02
[...]
 Copying SCF densities to generalized density rwf, IOpCl= 1 IROHF=0.

 **********************************************************************

            Population analysis using the SCF Density.

 **********************************************************************

 Alpha  occ. eigenvalues --  -18.96283  -0.98031  -0.48798  -0.34794  -0.26781
 Alpha virt. eigenvalues --    0.03211   0.09714   0.35043   0.39511   0.43660
 Alpha virt. eigenvalues --    0.44026   0.56408   0.57238   1.16260   1.19023
 Alpha virt. eigenvalues --    1.30060   1.52910   1.64831   1.76777   2.01399
 Alpha virt. eigenvalues --    2.09197   2.12712   2.32266   2.41695   2.62675
 Alpha virt. eigenvalues --    2.64968   2.69090   2.84251   3.73300   4.01001
 Alpha virt. eigenvalues --    5.23071   5.32875   5.50639   5.52238   5.57842
 Alpha virt. eigenvalues --    6.12720   6.32279   6.42776   6.48884   6.54947
 Alpha virt. eigenvalues --    7.04851   7.14213  43.44179
  Beta  occ. eigenvalues --  -18.96283  -0.98031  -0.48798  -0.34794  -0.26781
  Beta virt. eigenvalues --    0.03211   0.09714   0.35043   0.39511   0.43660
  Beta virt. eigenvalues --    0.44026   0.56408   0.57238   1.16260   1.19023
  Beta virt. eigenvalues --    1.30060   1.52910   1.64831   1.76777   2.01399
  Beta virt. eigenvalues --    2.09197   2.12712   2.32266   2.41695   2.62675
  Beta virt. eigenvalues --    2.64968   2.69090   2.84251   3.73300   4.01001
  Beta virt. eigenvalues --    5.23071   5.32875   5.50639   5.52238   5.57842
  Beta virt. eigenvalues --    6.12720   6.32279   6.42776   6.48884   6.54947
  Beta virt. eigenvalues --    7.04851   7.14213  43.44179
          Condensed to atoms (all electrons):
              35         36         37
    35  O    8.058705   0.288933   0.288741
    36  H    0.288933   0.410089  -0.017159
    37  H    0.288741  -0.017159   0.410177
          Atomic-Atomic Spin Densities.
              35         36         37
    35  O    0.000000   0.000000   0.000000
    36  H    0.000000   0.000000   0.000000
    37  H    0.000000   0.000000   0.000000
 Mulliken charges and spin densities:
               1          2
     1  O    0.000000   0.000000
     2  O    0.000000   0.000000
     3  C    0.000000   0.000000
     4  H    0.000000   0.000000
     5  O    0.000000   0.000000
     6  O    0.000000   0.000000
     7  C    0.000000   0.000000
     8  H    0.000000   0.000000
     9  O    0.000000   0.000000
    10  O    0.000000   0.000000
    11  O    0.000000   0.000000
    12  C    0.000000   0.000000
    13  H    0.000000   0.000000
    14  O    0.000000   0.000000
    15  O    0.000000   0.000000
    16  C    0.000000   0.000000
    17  H    0.000000   0.000000
    18  Fe   0.000000   0.000000
    19  O    0.000000   0.000000
    20  Fe   0.000000   0.000000
    21  O    0.000000   0.000000
    22  O    0.000000   0.000000
    23  Fe   0.000000   0.000000
    24  O    0.000000   0.000000
    25  C    0.000000   0.000000
    26  H    0.000000   0.000000
    27  C    0.000000   0.000000
    28  H    0.000000   0.000000
    29  N    0.000000   0.000000
    30  N    0.000000   0.000000
    31  O    0.000000   0.000000
    32  O    0.000000   0.000000
    33  H    0.000000   0.000000
    34  H    0.000000   0.000000
    35  O   -0.636379   0.000000
    36  H    0.318138   0.000000
    37  H    0.318241   0.000000
 Sum of Mulliken charges =  -0.00000   0.00000
 Mulliken charges and spin densities with hydrogens summed into heavy atoms:
               1          2
     1  O    0.000000   0.000000
     2  O    0.000000   0.000000
     3  C    0.000000   0.000000
     5  O    0.000000   0.000000
     6  O    0.000000   0.000000
     7  C    0.000000   0.000000
     9  O    0.000000   0.000000
    10  O    0.000000   0.000000
    11  O    0.000000   0.000000
    12  C    0.000000   0.000000
    14  O    0.000000   0.000000
    15  O    0.000000   0.000000
    16  C    0.000000   0.000000
    18  Fe   0.000000   0.000000
    19  O    0.000000   0.000000
    20  Fe   0.000000   0.000000
    21  O    0.000000   0.000000
    22  O    0.000000   0.000000
    23  Fe   0.000000   0.000000
    24  O    0.000000   0.000000
    25  C    0.000000   0.000000
    27  C    0.000000   0.000000
    29  N    0.000000   0.000000
    30  N    0.000000   0.000000
    31  O    0.000000   0.000000
    32  O    0.000000   0.000000
    35  O   -0.000000   0.000000
         Mulliken charges and spin densities condensed to fragments:
      1      0.000000      0.000000
      2      0.000000      0.000000
      3      0.000000      0.000000
      4     -0.000000      0.000000
 Electronic spatial extent (au):  <R**2>=            661.0532
 Charge=             -0.0000 electrons
 Dipole moment (field-independent basis, Debye):
    X=              0.0875    Y=             -0.1198    Z=             -2.0245  Tot=              2.0299
 Quadrupole moment (field-independent basis, Debye-Ang):
   XX=             -4.1724   YY=             -6.3795   ZZ=             -4.8100
   XY=              0.1506   XZ=             -2.8162   YZ=              8.2239
 Traceless Quadrupole moment (field-independent basis, Debye-Ang):
   XX=              0.9482   YY=             -1.2588   ZZ=              0.3106
   XY=              0.1506   XZ=             -2.8162   YZ=              8.2239
 Octapole moment (field-independent basis, Debye-Ang**2):
  XXX=            -17.8141  YYY=             82.1026  ZZZ=              4.3400  XYY=            -12.8421
  XXY=             18.2358  XXZ=             -3.6744  XZZ=             -6.7596  YZZ=             19.0841
  YYZ=            -31.2906  XYZ=             11.0120
 Hexadecapole moment (field-independent basis, Debye-Ang**3):
 XXXX=            -55.8124 YYYY=           -676.9117 ZZZZ=             -9.2000 XXXY=             74.6705
 XXXZ=             -4.5230 YYYX=            140.8717 YYYZ=            110.3396 ZZZX=              6.1425
 ZZZY=            -17.2492 XXYY=            -95.6714 XXZZ=            -11.0017 YYZZ=            -78.5401
 XXYZ=             13.7933 YYXZ=            -40.0801 ZZXY=             27.1273
 N-N= 9.089203904214D+00 E-N=-1.991269332659D+02  KE= 7.618941726663D+01
 There are a total of       66422 grid points.
 ElSum from          density=        9.9999999675
 ElSum from atomic densities=        9.9999999654
 Hirshfeld populations at iteration   1 (CA, CB, DipXYZ):
               1          2          3          4          5
     1  O    0.000000   0.000000   0.000000   0.000000   0.000000
     2  O    0.000000   0.000000   0.000000   0.000000   0.000000
     3  C    0.000000   0.000000   0.000000   0.000000   0.000000
     4  H    0.000000   0.000000   0.000000   0.000000   0.000000
     5  O    0.000000   0.000000   0.000000   0.000000   0.000000
     6  O    0.000000   0.000000   0.000000   0.000000   0.000000
     7  C    0.000000   0.000000   0.000000   0.000000   0.000000
     8  H    0.000000   0.000000   0.000000   0.000000   0.000000
     9  O    0.000000   0.000000   0.000000   0.000000   0.000000
    10  O    0.000000   0.000000   0.000000   0.000000   0.000000
    11  O    0.000000   0.000000   0.000000   0.000000   0.000000
    12  C    0.000000   0.000000   0.000000   0.000000   0.000000
    13  H    0.000000   0.000000   0.000000   0.000000   0.000000
    14  O    0.000000   0.000000   0.000000   0.000000   0.000000
    15  O    0.000000   0.000000   0.000000   0.000000   0.000000
    16  C    0.000000   0.000000   0.000000   0.000000   0.000000
    17  H    0.000000   0.000000   0.000000   0.000000   0.000000
    18  Fe   0.000000   0.000000   0.000000   0.000000   0.000000
    19  O    0.000000   0.000000   0.000000   0.000000   0.000000
    20  Fe   0.000000   0.000000   0.000000   0.000000   0.000000
    21  O    0.000000   0.000000   0.000000   0.000000   0.000000
    22  O    0.000000   0.000000   0.000000   0.000000   0.000000
    23  Fe   0.000000   0.000000   0.000000   0.000000   0.000000
    24  O    0.000000   0.000000   0.000000   0.000000   0.000000
    25  C    0.000000   0.000000   0.000000   0.000000   0.000000
    26  H    0.000000   0.000000   0.000000   0.000000   0.000000
    27  C    0.000000   0.000000   0.000000   0.000000   0.000000
    28  H    0.000000   0.000000   0.000000   0.000000   0.000000
    29  N    0.000000   0.000000   0.000000   0.000000   0.000000
    30  N    0.000000   0.000000   0.000000   0.000000   0.000000
    31  O    0.000000   0.000000   0.000000   0.000000   0.000000
    32  O    0.000000   0.000000   0.000000   0.000000   0.000000
    33  H    0.000000   0.000000   0.000000   0.000000   0.000000
    34  H    0.000000   0.000000   0.000000   0.000000   0.000000
    35  O    4.154531   4.154531   0.007558  -0.010007  -0.169921
    36  H    0.422776   0.422776   0.183067   0.030369  -0.134918
    37  H    0.422692   0.422692  -0.170792  -0.046944  -0.145736
       Tot   5.000000   5.000000   0.019833  -0.026583  -0.450574

 Dip from Atomic Chgs              0.014588  -0.020544  -0.345919
         Total Dipole              0.034421  -0.047126  -0.796493

 Hirshfeld charges, spin densities, dipoles, and CM5 charges using IRadAn=      5:
              Q-H        S-H        Dx         Dy         Dz        Q-CM5   
     1  O    0.000000   0.000000   0.000000   0.000000   0.000000   0.000000
     2  O    0.000000   0.000000   0.000000   0.000000   0.000000   0.000000
     3  C    0.000000   0.000000   0.000000   0.000000   0.000000   0.000000
     4  H    0.000000   0.000000   0.000000   0.000000   0.000000   0.000000
     5  O    0.000000   0.000000   0.000000   0.000000   0.000000   0.000000
     6  O    0.000000   0.000000   0.000000   0.000000   0.000000   0.000000
     7  C    0.000000   0.000000   0.000000   0.000000   0.000000   0.000000
     8  H    0.000000   0.000000   0.000000   0.000000   0.000000   0.000000
     9  O    0.000000   0.000000   0.000000   0.000000   0.000000   0.000000
    10  O    0.000000   0.000000   0.000000   0.000000   0.000000   0.000000
    11  O    0.000000   0.000000   0.000000   0.000000   0.000000   0.000000
    12  C    0.000000   0.000000   0.000000   0.000000   0.000000   0.000000
    13  H    0.000000   0.000000   0.000000   0.000000   0.000000   0.000000
    14  O    0.000000   0.000000   0.000000   0.000000   0.000000   0.000000
    15  O    0.000000   0.000000   0.000000   0.000000   0.000000   0.000000
    16  C    0.000000   0.000000   0.000000   0.000000   0.000000   0.000000
    17  H    0.000000   0.000000   0.000000   0.000000   0.000000   0.000000
    18  Fe   0.000000   0.000000   0.000000   0.000000   0.000000   0.000000
    19  O    0.000000   0.000000   0.000000   0.000000   0.000000   0.000000
    20  Fe   0.000000   0.000000   0.000000   0.000000   0.000000   0.000000
    21  O    0.000000   0.000000   0.000000   0.000000   0.000000   0.000000
    22  O    0.000000   0.000000   0.000000   0.000000   0.000000   0.000000
    23  Fe   0.000000   0.000000   0.000000   0.000000   0.000000   0.000000
    24  O    0.000000   0.000000   0.000000   0.000000   0.000000   0.000000
    25  C    0.000000   0.000000   0.000000   0.000000   0.000000   0.000000
    26  H    0.000000   0.000000   0.000000   0.000000   0.000000   0.000000
    27  C    0.000000   0.000000   0.000000   0.000000   0.000000   0.000000
    28  H    0.000000   0.000000   0.000000   0.000000   0.000000   0.000000
    29  N    0.000000   0.000000   0.000000   0.000000   0.000000   0.000000
    30  N    0.000000   0.000000   0.000000   0.000000   0.000000   0.000000
    31  O    0.000000   0.000000   0.000000   0.000000   0.000000   0.000000
    32  O    0.000000   0.000000   0.000000   0.000000   0.000000   0.000000
    33  H    0.000000   0.000000   0.000000   0.000000   0.000000   0.000000
    34  H    0.000000   0.000000   0.000000   0.000000   0.000000   0.000000
    35  O   -0.309062   0.000000   0.007558  -0.010007  -0.169921  -0.636405
    36  H    0.154447   0.000000   0.183067   0.030369  -0.134918   0.318314
    37  H    0.154615   0.000000  -0.170792  -0.046944  -0.145736   0.318091
       Tot   0.000000   0.000000   0.019833  -0.026583  -0.450574   0.000000
 Hirshfeld charges and spin densities with hydrogens summed into heavy atoms:
              Q-H        S-H       Q-CM5   
     1  O    0.000000   0.000000   0.000000
     2  O    0.000000   0.000000   0.000000
     3  C    0.000000   0.000000   0.000000
     5  O    0.000000   0.000000   0.000000
     6  O    0.000000   0.000000   0.000000
     7  C    0.000000   0.000000   0.000000
     9  O    0.000000   0.000000   0.000000
    10  O    0.000000   0.000000   0.000000
    11  O    0.000000   0.000000   0.000000
    12  C    0.000000   0.000000   0.000000
    14  O    0.000000   0.000000   0.000000
    15  O    0.000000   0.000000   0.000000
    16  C    0.000000   0.000000   0.000000
    18  Fe   0.000000   0.000000   0.000000
    19  O    0.000000   0.000000   0.000000
    20  Fe   0.000000   0.000000   0.000000
    21  O    0.000000   0.000000   0.000000
    22  O    0.000000   0.000000   0.000000
    23  Fe   0.000000   0.000000   0.000000
    24  O    0.000000   0.000000   0.000000
    25  C    0.000000   0.000000   0.000000
    27  C    0.000000   0.000000   0.000000
    29  N    0.000000   0.000000   0.000000
    30  N    0.000000   0.000000   0.000000
    31  O    0.000000   0.000000   0.000000
    32  O    0.000000   0.000000   0.000000
    35  O    0.000000   0.000000   0.000000
         Hirshfeld charges and spin densities condensed to fragments:
      1      0.000000      0.000000
      2      0.000000      0.000000
      3      0.000000      0.000000
      4      0.000000      0.000000
 
 EQQ=  0.00000000000     EQD=  0.00000000000     EDD= 0.728481826386E-02
 EQQ+QD+DD= 0.728481826386E-02
 
                          Isotropic Fermi Contact Couplings
        Atom                 a.u.       MegaHertz       Gauss      10(-4) cm-1
    35  O(17)              0.00000      -0.00000      -0.00000      -0.00000
    36  H(1)               0.00000       0.00000       0.00000       0.00000
    37  H(1)               0.00000       0.00000       0.00000       0.00000
 --------------------------------------------------------
       Center         ----  Spin Dipole Couplings  ----
                      3XX-RR        3YY-RR        3ZZ-RR
 --------------------------------------------------------
    35   Atom        0.000000      0.000000      0.000000
    36   Atom        0.000000      0.000000      0.000000
    37   Atom        0.000000      0.000000      0.000000
 --------------------------------------------------------
                        XY            XZ            YZ
 --------------------------------------------------------
    35   Atom        0.000000      0.000000      0.000000
    36   Atom        0.000000      0.000000      0.000000
    37   Atom        0.000000      0.000000      0.000000
 --------------------------------------------------------


 ---------------------------------------------------------------------------------
              Anisotropic Spin Dipole Couplings in Principal Axis System
 ---------------------------------------------------------------------------------

       Atom             a.u.   MegaHertz   Gauss  10(-4) cm-1        Axes

              Baa     0.0000    -0.000    -0.000    -0.000  1.0000  0.0000  0.0000
    35 O(17)  Bbb     0.0000    -0.000    -0.000    -0.000 -0.0000  1.0000  0.0000
              Bcc     0.0000    -0.000    -0.000    -0.000  0.0000  0.0000  1.0000
 
              Baa     0.0000     0.000     0.000     0.000  1.0000  0.0000  0.0000
    36 H(1)   Bbb     0.0000     0.000     0.000     0.000 -0.0000  1.0000  0.0000
              Bcc     0.0000     0.000     0.000     0.000  0.0000  0.0000  1.0000
 
              Baa     0.0000     0.000     0.000     0.000  1.0000  0.0000  0.0000
    37 H(1)   Bbb     0.0000     0.000     0.000     0.000 -0.0000  1.0000  0.0000
              Bcc     0.0000     0.000     0.000     0.000  0.0000  0.0000  1.0000
 

 ---------------------------------------------------------------------------------

 No NMR shielding tensors so no spin-rotation constants.
 Leave Link  601 at Thu Feb  2 17:35:03 2023, MaxMem= 14763950080 cpu:               0.4 elap:               0.7
 (Enter /software/commercial/gaussian/g16/AVX2/g16/l122.exe)
 CPIOFr:  IOpCl= 1 IRwI=-1 IRwCP=  731 ICalc=  8 LCPTot=     1335953 Len1MO=     4428746 IndFrg=    41194667
 Restoring MOs from calculation   1 to rwf.
 CPIOFr:  IOpCl= 1 IRwI=-2 IRwCP=  731 ICalc=  0 LCPTot=     1335953 Len1MO=     4428746 IndFrg=     5764699
 Counterpoise corrected energy =   -5339.759601300358
                   BSSE energy =       0.005721641112
              sum of fragments =   -5339.681320768138
           complexation energy =     -52.71 kcal/mole (raw)
           complexation energy =     -49.12 kcal/mole (corrected)
 Leave Link  122 at Thu Feb  2 17:35:05 2023, MaxMem= 14763950080 cpu:               0.1 elap:               1.2
 (Enter /software/commercial/gaussian/g16/AVX2/g16/l9999.exe)
 Unable to Open any file for archive entry.
 1\1\GINC-NODE0307\SP\UM06L\Gen\C6H10Fe3N2O16(15)\SVICCHI\02-Feb-2023\0
 \\#p gen um06l int=grid=ultrafine scf=(xqc,intrep,maxconventionalcycle
 =150) pop=(hirshfeld) nosymm counterpoise=4\\FeFeFe-AO-2xH2O\\0,15\O,0
 ,0.901884,2.464421,1.629663\O,0,-1.283903,1.934857,1.488176\C,0,-0.303
 142,2.558835,1.956885\H,0,-0.53105,3.280866,2.760225\O,0,2.36535,-1.71
 9034,-1.331416\O,0,2.980154,0.446788,-1.30016\C,0,3.026568,-0.730477,-
 1.72394\H,0,3.740012,-0.921343,-2.546873\O,0,-2.084369,-0.833419,1.435
 282\O,0,2.974287,0.40451,1.581837\O,0,2.356918,-1.761522,1.551008\C,0,
 3.035877,-0.789357,1.955355\H,0,3.78034,-1.012947,2.739167\O,0,-1.2435
 88,1.943741,-1.373355\O,0,0.916277,2.56741,-1.249241\C,0,-0.250407,2.6
 26787,-1.706177\H,0,-0.423847,3.372607,-2.502445\Fe,0,-1.358816,0.4989
 54,0.0554\O,0,-2.034813,-0.794909,-1.393682\Fe,0,0.891049,-1.887124,0.
 159596\O,0,-0.501873,-2.442192,-1.328578\O,0,-0.494514,-2.426038,1.549
 418\Fe,0,1.803464,1.326402,0.20803\O,0,0.44829,-0.025555,0.097302\C,0,
 -1.538489,-1.884354,-1.758462\H,0,-2.082002,-2.417178,-2.559488\C,0,-1
 .579411,-1.894556,1.87457\H,0,-2.166116,-2.423859,2.645731\N,0,-4.4692
 ,0.119957,0.012553\N,0,-5.176147,-0.75238,0.003168\O,0,-3.737701,1.048
 707,0.021456\O,0,3.328491,2.861727,-0.12493\H,0,3.923643,2.368101,-0.7
 06982\H,0,2.816905,3.424506,-0.725505\O,0,1.390462,-3.987118,-0.224269
 \H,0,2.162789,-3.858984,-0.793408\H,0,0.668901,-4.185424,-0.83967\\Ver
 sion=ES64L-G16RevC.02\HF=-76.4431405\S2=0.\S2-1=0.\S2A=0.\RMSD=3.296e-
 09\Dipole=0.4766077,-0.1348757,-1.2173567\Quadrupole=1.4053107,1.50856
 46,-2.9138753,-0.0264726,-6.8578361,1.7420279\PG=C01 [X(C6H10Fe3N2O16)
 ]\\@
 The archive entry for this job was punched.


          EVOLUTION
 IN THE BEGINNING GOD MADE MAN.
 HE WORKED THE DIRT WITH HIS HANDS.
 THEN GOD DECIDED TO GIVE MAN SCIENCE,
 MAN SHOULD BE USEFUL (LIKE AN APPLIANCE.)
 BUT SOON MAN'S KNOWLEDGE GREW TOO GREAT,
 TO THE HEADING SCIENCE HE COULDN'T RELATE
 SO GOD SAID "LETS HAVE DIFFERENT FIELDS,
 WE'LL DIVIDE THEM UP, SEE WHAT IT YIELDS."
 ENTER PHYSICS, CHEMISTRY, BIO
 THEY SPRANG UP AROUND THE NILE.
 BUT CHEMISTRY SURPASSED THE REST
 FAR AND AWAY IT WAS THE BEST.
 EXPERIMENT WAS GOD'S DECREE
 EXPERIMENT DID CHEMISTS WITH LOTS OF GLEE
 BUT SOON THEIR TESTS BEGAN TO BOG,
 THEY FOUND THEMSELVES DEEP IN A FOG.
 "GIVE US SOME HELP" THEY CRIED TO GOD.
 GOD LOOKED AROUND, THEN GAVE THE NOD.
 ENTER EINSTEIN, HEISENBERG, BOHR,
 REACTION PATHS WERE CLEAR ONCE MORE.
 WITH THEORISTS GOD SEND DIRECTION
 AND THEN HE STOPPED, HE'D MADE PERFECTION.
          -- THOMAS A. HOLME, 1981
 Job cpu time:       0 days 14 hours 30 minutes 41.9 seconds.
 Elapsed time:       0 days  7 hours 25 minutes 50.8 seconds.
 File lengths (MBytes):  RWF=   1224 Int=      0 D2E=      0 Chk=    370 Scr=      1
 Normal termination of Gaussian 16 at Thu Feb  2 17:35:12 2023.
