 Entering Gaussian System, Link 0=g16
 Input=FeFeFe-AO-2xH2O-opt.gjf
 Output=FeFeFe-AO-2xH2O-opt.log
 AtFile(1): /zfs/curium/svicchi/00-MOF/01-Gaussian/zw-basis-set/def2-TZVP/H.gbs
            !----------------------------------------------------------------------
            ! Basis Set Exchange
            ! Version v0.9
            ! https://www.basissetexchange.org
            !----------------------------------------------------------------------
            !   Basis set: def2-TZVP
            ! Description: def2-TZVP
            !        Role: orbital
            !     Version: 1  (Data from Turbomole 7.3)
            !----------------------------------------------------------------------
            H     0
            S    3   1.00
                 34.0613410              0.60251978D-02
                  5.1235746              0.45021094D-01
                  1.1646626              0.20189726
            S    1   1.00
                  0.32723041             1.0000000
            S    1   1.00
                  0.10307241             1.0000000
            P    1   1.00
                  0.8000000              1.0000000
 AtFile(1): /zfs/curium/svicchi/00-MOF/01-Gaussian/zw-basis-set/def2-TZVP/O.gbs
            !----------------------------------------------------------------------
            ! Basis Set Exchange
            ! Version v0.9
            ! https://www.basissetexchange.org
            !----------------------------------------------------------------------
            !   Basis set: def2-TZVP
            ! Description: def2-TZVP
            !        Role: orbital
            !     Version: 1  (Data from Turbomole 7.3)
            !----------------------------------------------------------------------
            O     0
            S    6   1.00
              27032.3826310              0.21726302465D-03
               4052.3871392              0.16838662199D-02
                922.32722710             0.87395616265D-02
                261.24070989             0.35239968808D-01
                 85.354641351            0.11153519115
                 31.035035245            0.25588953961
            S    2   1.00
                 12.260860728            0.39768730901
                  4.9987076005           0.24627849430
            S    1   1.00
                  1.1703108158           1.0000000
            S    1   1.00
                  0.46474740994          1.0000000
            S    1   1.00
                  0.18504536357          1.0000000
            P    4   1.00
                 63.274954801            0.60685103418D-02
                 14.627049379            0.41912575824D-01
                  4.4501223456           0.16153841088
                  1.5275799647           0.35706951311
            P    1   1.00
                  0.52935117943           .44794207502
            P    1   1.00
                  0.17478421270           .24446069663
            D    1   1.00
                  2.31400000             1.0000000
            D    1   1.00
                  0.64500000             1.0000000
            F    1   1.00
                  1.42800000             1.0000000
 AtFile(1): /zfs/curium/svicchi/00-MOF/01-Gaussian/zw-basis-set/def2-TZVP/C.gbs
            !----------------------------------------------------------------------
            ! Basis Set Exchange
            ! Version v0.9
            ! https://www.basissetexchange.org
            !----------------------------------------------------------------------
            !   Basis set: def2-TZVP
            ! Description: def2-TZVP
            !        Role: orbital
            !     Version: 1  (Data from Turbomole 7.3)
            !----------------------------------------------------------------------
            C     0
            S    6   1.00
              13575.3496820              0.22245814352D-03
               2035.2333680              0.17232738252D-02
                463.22562359             0.89255715314D-02
                131.20019598             0.35727984502D-01
                 42.853015891            0.11076259931
                 15.584185766            0.24295627626
            S    2   1.00
                  6.2067138508           0.41440263448
                  2.5764896527           0.23744968655
            S    1   1.00
                  0.57696339419          1.0000000
            S    1   1.00
                  0.22972831358          1.0000000
            S    1   1.00
                  0.95164440028D-01      1.0000000
            P    4   1.00
                 34.697232244            0.53333657805D-02
                  7.9582622826           0.35864109092D-01
                  2.3780826883           0.14215873329
                  0.81433208183          0.34270471845
            P    1   1.00
                  0.28887547253           .46445822433
            P    1   1.00
                  0.10056823671           .24955789874
            D    1   1.00
                  1.09700000             1.0000000
            D    1   1.00
                  0.31800000             1.0000000
            F    1   1.00
                  0.76100000             1.0000000
 AtFile(1): /zfs/curium/svicchi/00-MOF/01-Gaussian/zw-basis-set/def2-TZVP/Fe.gbs
            !----------------------------------------------------------------------
            ! Basis Set Exchange
            ! Version v0.9
            ! https://www.basissetexchange.org
            !----------------------------------------------------------------------
            !   Basis set: def2-TZVP
            ! Description: def2-TZVP
            !        Role: orbital
            !     Version: 1  (Data from Turbomole 7.3)
            !----------------------------------------------------------------------
            Fe     0
            S    8   1.00
             300784.8463700              0.22806273096D-03
              45088.9705570              0.17681788761D-02
              10262.5163170              0.91927083490D-02
               2905.2897293              0.37355495807D-01
                946.11487137             0.12151108426
                339.87832894             0.28818881468
                131.94425588             0.41126612677
                 52.111494077            0.21518583573
            S    4   1.00
                329.48839267            -0.24745216477D-01
                101.92332739            -0.11683089050
                 16.240462745            0.55293621136
                  6.8840675801           0.53601640182
            S    2   1.00
                 10.470693782           -0.22912708577
                  1.7360039648           0.71159319984
            S    1   1.00
                  0.72577288979          1.0000000
            S    1   1.00
                  0.11595528203          1.0000000
            S    1   1.00
                  0.41968227746D-01      1.0000000
            P    6   1.00
               1585.3959970              0.23793960179D-02
                375.38006499             0.19253154755D-01
                120.31816501             0.90021836536D-01
                 44.788749031            0.25798172356
                 17.829278584            0.41492649744
                  7.2247153786           0.24207474784
            P    3   1.00
                 28.143219756           -0.29041755152D-01
                  3.8743241412           0.55312260343
                  1.5410752281           0.96771136842
            P    1   1.00
                  0.58285615250          1.0000000
            P    1   1.00
                  0.1349150              1.0000000
            D    4   1.00
                 61.996675034            0.11971972255D-01
                 17.873732552            0.73210135410D-01
                  6.2744782934           0.23103094314
                  2.3552337175           0.39910706494
            D    1   1.00
                  0.85432239901           .41391589765
            D    1   1.00
                  0.27869254413           .21909269782
            D    1   1.00
                  0.0910000              1.0000000
            F    1   1.00
                  1.5980000              1.0000000
 AtFile(1): /zfs/curium/svicchi/00-MOF/01-Gaussian/zw-basis-set/def2-TZVP/N.gbs
            !----------------------------------------------------------------------
            ! Basis Set Exchange
            ! Version v0.9
            ! https://www.basissetexchange.org
            !----------------------------------------------------------------------
            !   Basis set: def2-TZVP
            ! Description: def2-TZVP
            !        Role: orbital
            !     Version: 1  (Data from Turbomole 7.3)
            !----------------------------------------------------------------------
            N     0
            S    6   1.00
              19730.8006470              0.21887984991D-03
               2957.8958745              0.16960708803D-02
                673.22133595             0.87954603538D-02
                190.68249494             0.35359382605D-01
                 62.295441898            0.11095789217
                 22.654161182            0.24982972552
            S    2   1.00
                  8.9791477428           0.40623896148
                  3.6863002370           0.24338217176
            S    1   1.00
                  0.84660076805          1.0000000
            S    1   1.00
                  0.33647133771          1.0000000
            S    1   1.00
                  0.13647653675          1.0000000
            P    4   1.00
                 49.200380510            0.55552416751D-02
                 11.346790537            0.38052379723D-01
                  3.4273972411           0.14953671029
                  1.1785525134           0.34949305230
            P    1   1.00
                  0.41642204972           .45843153697
            P    1   1.00
                  0.14260826011           .24428771672
            D    1   1.00
                  1.65400000             1.0000000
            D    1   1.00
                  0.46900000             1.0000000
            F    1   1.00
                  1.09300000             1.0000000
 Initial command:
 /software/commercial/gaussian/g16/AVX2/g16/l1.exe "/scratch1/svicchi/G09-84877.pbs02/Gau-3871615.inp" -scrdir="/scratch1/svicchi/G09-84877.pbs02/"
 Entering Link 1 = /software/commercial/gaussian/g16/AVX2/g16/l1.exe PID=   3871616.
  
 Copyright (c) 1988-2021, Gaussian, Inc.  All Rights Reserved.
  
 This is part of the Gaussian(R) 16 program.  It is based on
 the Gaussian(R) 09 system (copyright 2009, Gaussian, Inc.),
 the Gaussian(R) 03 system (copyright 2003, Gaussian, Inc.),
 the Gaussian(R) 98 system (copyright 1998, Gaussian, Inc.),
 the Gaussian(R) 94 system (copyright 1995, Gaussian, Inc.),
 the Gaussian 92(TM) system (copyright 1992, Gaussian, Inc.),
 the Gaussian 90(TM) system (copyright 1990, Gaussian, Inc.),
 the Gaussian 88(TM) system (copyright 1988, Gaussian, Inc.),
 the Gaussian 86(TM) system (copyright 1986, Carnegie Mellon
 University), and the Gaussian 82(TM) system (copyright 1983,
 Carnegie Mellon University). Gaussian is a federally registered
 trademark of Gaussian, Inc.
  
 This software contains proprietary and confidential information,
 including trade secrets, belonging to Gaussian, Inc.
  
 This software is provided under written license and may be
 used, copied, transmitted, or stored only in accord with that
 written license.
  
 The following legend is applicable only to US Government
 contracts under FAR:
  
                    RESTRICTED RIGHTS LEGEND
  
 Use, reproduction and disclosure by the US Government is
 subject to restrictions as set forth in subparagraphs (a)
 and (c) of the Commercial Computer Software - Restricted
 Rights clause in FAR 52.227-19.
  
 Gaussian, Inc.
 340 Quinnipiac St., Bldg. 40, Wallingford CT 06492
  
  
 ---------------------------------------------------------------
 Warning -- This program may not be used in any manner that
 competes with the business of Gaussian, Inc. or will provide
 assistance to any competitor of Gaussian, Inc.  The licensee
 of this program is prohibited from giving any competitor of
 Gaussian, Inc. access to this program.  By using this program,
 the user acknowledges that Gaussian, Inc. is engaged in the
 business of creating and licensing software in the field of
 computational chemistry and represents and warrants to the
 licensee that it is not a competitor of Gaussian, Inc. and that
 it will not use this program in any manner prohibited above.
 ---------------------------------------------------------------
  

 Cite this work as:
 Gaussian 16, Revision C.02,
 M. J. Frisch, G. W. Trucks, H. B. Schlegel, G. E. Scuseria, 
 M. A. Robb, J. R. Cheeseman, G. Scalmani, V. Barone, 
 G. A. Petersson, H. Nakatsuji, X. Li, M. Caricato, A. V. Marenich, 
 J. Bloino, B. G. Janesko, R. Gomperts, B. Mennucci, H. P. Hratchian, 
 J. V. Ortiz, A. F. Izmaylov, J. L. Sonnenberg, D. Williams-Young, 
 F. Ding, F. Lipparini, F. Egidi, J. Goings, B. Peng, A. Petrone, 
 T. Henderson, D. Ranasinghe, V. G. Zakrzewski, J. Gao, N. Rega, 
 G. Zheng, W. Liang, M. Hada, M. Ehara, K. Toyota, R. Fukuda, 
 J. Hasegawa, M. Ishida, T. Nakajima, Y. Honda, O. Kitao, H. Nakai, 
 T. Vreven, K. Throssell, J. A. Montgomery, Jr., J. E. Peralta, 
 F. Ogliaro, M. J. Bearpark, J. J. Heyd, E. N. Brothers, K. N. Kudin, 
 V. N. Staroverov, T. A. Keith, R. Kobayashi, J. Normand, 
 K. Raghavachari, A. P. Rendell, J. C. Burant, S. S. Iyengar, 
 J. Tomasi, M. Cossi, J. M. Millam, M. Klene, C. Adamo, R. Cammi, 
 J. W. Ochterski, R. L. Martin, K. Morokuma, O. Farkas, 
 J. B. Foresman, and D. J. Fox, Gaussian, Inc., Wallingford CT, 2019.
 
 ******************************************
 Gaussian 16:  ES64L-G16RevC.02  7-Dec-2021
                31-Jan-2023 
 ******************************************
 %NProcShared=2
 Will use up to    2 processors via shared memory.
 %mem=110gb
 %chk=/scratch1/svicchi/G09-84877.pbs02/00-opt/FeFeFe-AO-2xH2O-opt.chk
 ----------------------------------------------------------------------
 #p opt=(cartesian,maxcycle=500) gen um06l int=grid=ultrafine scf=(xqc,
 intrep,maxconventionalcycle=150) pop=(hirshfeld) nosymm
 ----------------------------------------------------------------------
 1/6=500,10=7,18=10,26=4,38=1/1,3;
 2/12=2,15=1,17=6,18=5,29=2,40=1/2;
 3/5=7,11=2,25=1,30=1,71=1,74=-53,75=-5,116=2/1,2,3;
 4//1;
 5/5=2,8=3,13=1,17=20,38=5,85=150/2,8;
 6/7=2,8=2,9=2,10=2,28=1,79=1/1;
 7/7=1,29=1,30=1/1,2,3,16;
 1/6=500,10=7,18=10,26=4/3(2);
 2/15=1,29=1/2;
 99/12=1/99;
 2/15=1,29=1/2;
 3/5=7,6=1,11=2,25=1,30=1,71=1,74=-53,75=-5,82=7,116=2/1,2,3;
 4/5=5,16=3,69=1/1;
 5/5=2,8=3,13=1,17=20,38=5,85=150/2,8;
 7/7=1,30=1/1,2,3,16;
 1/6=500,18=10,26=4/3(-5);
 2/15=1,29=1/2;
 6/7=2,8=2,9=2,10=2,19=2,28=1,79=1/1;
 99/9=1,12=1/99;
 Leave Link    1 at Tue Jan 31 09:31:52 2023, MaxMem= 14763950080 cpu:               0.0 elap:               0.6
 (Enter /software/commercial/gaussian/g16/AVX2/g16/l101.exe)
 ---------------
 FeFeFe-AO-2xH2O
 ---------------
 Symbolic Z-matrix:
 Charge =  0 Multiplicity =15
 O                     0.9001    2.46512   1.62821 
 O                    -1.28537   1.93439   1.48653 
 C                    -0.30502   2.55907   1.95517 
 H                    -0.53354   3.28132   2.75814 
 O                     2.36777  -1.71887  -1.33064 
 O                     2.98194   0.44706  -1.29921 
 C                     3.02916  -0.73023  -1.72271 
 H                     3.74351  -0.92111  -2.54485 
 O                    -2.0838   -0.83361   1.4349 
 O                     2.97229   0.40533   1.58271 
 O                     2.35448  -1.76059   1.55251 
 C                     3.03304  -0.78829   1.95717 
 H                     3.77622  -1.01144   2.74234 
 O                    -1.24257   1.94331  -1.37482 
 O                     0.91734   2.56689  -1.25082 
 C                    -0.24942   2.62639  -1.70763 
 H                    -0.42283   3.37241  -2.5037 
 Fe                   -1.35906   0.49843   0.05392 
 O                    -2.03555  -0.79605  -1.394 
 Fe                    0.89132  -1.8872    0.1582 
 O                    -0.50055  -2.44155  -1.33165 
 O                    -0.49525  -2.42771   1.54623 
 Fe                    1.80282   1.32674   0.20738 
 O                     0.44819  -0.0257    0.09612 
 C                    -1.53863  -1.88498  -1.75958 
 H                    -2.08313  -2.41855  -2.55945 
 C                    -1.5791   -1.89523   1.87327 
 H                    -2.16493  -2.42407   2.6454 
 N                    -4.46954   0.12085   0.02001 
 N                    -5.17718  -0.75097   0.01761 
 O                    -3.73732   1.04908   0.02181 
 O                     3.32868   2.86162  -0.12398 
 H                     3.92675   2.36656  -0.70179 
 H                     2.81927   3.42202  -0.72864 
 O                     1.39162  -3.98669  -0.22769 
 H                     2.16194  -3.85647  -0.79915 
 H                     0.66862  -4.18584  -0.8411 
 
 ITRead=  0  0  0  0  0  0  0  0  0  0  0  0  0  0  0  0  0  0  0  0
 ITRead=  0  0  0  0  0  0  0  0  0  0  0  0  0  0  0  0  0
 MicOpt= -1 -1 -1 -1 -1 -1 -1 -1 -1 -1 -1 -1 -1 -1 -1 -1 -1 -1 -1 -1
 MicOpt= -1 -1 -1 -1 -1 -1 -1 -1 -1 -1 -1 -1 -1 -1 -1 -1 -1
 NAtoms=     37 NQM=       37 NQMF=       0 NMMI=      0 NMMIF=      0
                NMic=       0 NMicF=      0.
                    Isotopes and Nuclear Properties:
 (Nuclear quadrupole moments (NQMom) in fm**2, nuclear magnetic moments (NMagM)
  in nuclear magnetons)

  Atom         1           2           3           4           5           6           7           8           9          10
 IAtWgt=          16          16          12           1          16          16          12           1          16          16
 AtmWgt=  15.9949146  15.9949146  12.0000000   1.0078250  15.9949146  15.9949146  12.0000000   1.0078250  15.9949146  15.9949146
 NucSpn=           0           0           0           1           0           0           0           1           0           0
 AtZEff=  -0.0000000  -0.0000000  -0.0000000  -0.0000000  -0.0000000  -0.0000000  -0.0000000  -0.0000000  -0.0000000  -0.0000000
 NQMom=    0.0000000   0.0000000   0.0000000   0.0000000   0.0000000   0.0000000   0.0000000   0.0000000   0.0000000   0.0000000
 NMagM=    0.0000000   0.0000000   0.0000000   2.7928460   0.0000000   0.0000000   0.0000000   2.7928460   0.0000000   0.0000000
 AtZNuc=   8.0000000   8.0000000   6.0000000   1.0000000   8.0000000   8.0000000   6.0000000   1.0000000   8.0000000   8.0000000

  Atom        11          12          13          14          15          16          17          18          19          20
 IAtWgt=          16          12           1          16          16          12           1          56          16          56
 AtmWgt=  15.9949146  12.0000000   1.0078250  15.9949146  15.9949146  12.0000000   1.0078250  55.9349393  15.9949146  55.9349393
 NucSpn=           0           0           1           0           0           0           1           0           0           0
 AtZEff=  -0.0000000  -0.0000000  -0.0000000  -0.0000000  -0.0000000  -0.0000000  -0.0000000  -0.0000000  -0.0000000  -0.0000000
 NQMom=    0.0000000   0.0000000   0.0000000   0.0000000   0.0000000   0.0000000   0.0000000   0.0000000   0.0000000   0.0000000
 NMagM=    0.0000000   0.0000000   2.7928460   0.0000000   0.0000000   0.0000000   2.7928460   0.0000000   0.0000000   0.0000000
 AtZNuc=   8.0000000   6.0000000   1.0000000   8.0000000   8.0000000   6.0000000   1.0000000  26.0000000   8.0000000  26.0000000

  Atom        21          22          23          24          25          26          27          28          29          30
 IAtWgt=          16          16          56          16          12           1          12           1          14          14
 AtmWgt=  15.9949146  15.9949146  55.9349393  15.9949146  12.0000000   1.0078250  12.0000000   1.0078250  14.0030740  14.0030740
 NucSpn=           0           0           0           0           0           1           0           1           2           2
 AtZEff=  -0.0000000  -0.0000000  -0.0000000  -0.0000000  -0.0000000  -0.0000000  -0.0000000  -0.0000000  -0.0000000  -0.0000000
 NQMom=    0.0000000   0.0000000   0.0000000   0.0000000   0.0000000   0.0000000   0.0000000   0.0000000   2.0440000   2.0440000
 NMagM=    0.0000000   0.0000000   0.0000000   0.0000000   0.0000000   2.7928460   0.0000000   2.7928460   0.4037610   0.4037610
 AtZNuc=   8.0000000   8.0000000  26.0000000   8.0000000   6.0000000   1.0000000   6.0000000   1.0000000   7.0000000   7.0000000

  Atom        31          32          33          34          35          36          37
 IAtWgt=          16          16           1           1          16           1           1
 AtmWgt=  15.9949146  15.9949146   1.0078250   1.0078250  15.9949146   1.0078250   1.0078250
 NucSpn=           0           0           1           1           0           1           1
 AtZEff=  -0.0000000  -0.0000000  -0.0000000  -0.0000000  -0.0000000  -0.0000000  -0.0000000
 NQMom=    0.0000000   0.0000000   0.0000000   0.0000000   0.0000000   0.0000000   0.0000000
 NMagM=    0.0000000   0.0000000   2.7928460   2.7928460   0.0000000   2.7928460   2.7928460
 AtZNuc=   8.0000000   8.0000000   1.0000000   1.0000000   8.0000000   1.0000000   1.0000000
 Leave Link  101 at Tue Jan 31 09:31:54 2023, MaxMem= 14763950080 cpu:               0.2 elap:               0.9
 (Enter /software/commercial/gaussian/g16/AVX2/g16/l103.exe)

 GradGradGradGradGradGradGradGradGradGradGradGradGradGradGradGradGradGrad
 Berny optimization.
 Initialization pass.
 No Z-matrix variables, so optimization will use Cartesian coordinates.
 Trust Radius=3.00D-01 FncErr=1.00D-07 GrdErr=1.00D-06 EigMax=2.50D+02 EigMin=1.00D-04
 Number of steps in this run=    222 maximum allowed number of steps=    222.
 GradGradGradGradGradGradGradGradGradGradGradGradGradGradGradGradGradGrad

 Leave Link  103 at Tue Jan 31 09:31:55 2023, MaxMem= 14763950080 cpu:               0.1 elap:               1.0
 (Enter /software/commercial/gaussian/g16/AVX2/g16/l202.exe)
 ---------------------------------------------------------------------------------------------------
                            Z-MATRIX (ANGSTROMS AND DEGREES)
   CD    Cent   Atom    N1       Length/X        N2       Alpha/Y        N3        Beta/Z          J
 ---------------------------------------------------------------------------------------------------
      1      1  O        0   0.900099          2.465117          1.628213
      2      2  O        0  -1.285374          1.934388          1.486532
      3      3  C        0  -0.305023          2.559067          1.955174
      4      4  H        0  -0.533541          3.281321          2.758141
      5      5  O        0   2.367768         -1.718871         -1.330635
      6      6  O        0   2.981939          0.447062         -1.299212
      7      7  C        0   3.029157         -0.730233         -1.722707
      8      8  H        0   3.743510         -0.921111         -2.544845
      9      9  O        0  -2.083801         -0.833607          1.434896
     10     10  O        0   2.972293          0.405327          1.582706
     11     11  O        0   2.354479         -1.760590          1.552511
     12     12  C        0   3.033043         -0.788294          1.957169
     13     13  H        0   3.776218         -1.011444          2.742342
     14     14  O        0  -1.242569          1.943312         -1.374816
     15     15  O        0   0.917337          2.566887         -1.250820
     16     16  C        0  -0.249418          2.626390         -1.707628
     17     17  H        0  -0.422834          3.372410         -2.503698
     18     18  Fe       0  -1.359059          0.498425          0.053924
     19     19  O        0  -2.035546         -0.796046         -1.393996
     20     20  Fe       0   0.891320         -1.887198          0.158199
     21     21  O        0  -0.500548         -2.441547         -1.331654
     22     22  O        0  -0.495251         -2.427708          1.546231
     23     23  Fe       0   1.802823          1.326739          0.207378
     24     24  O        0   0.448194         -0.025695          0.096120
     25     25  C        0  -1.538630         -1.884980         -1.759583
     26     26  H        0  -2.083131         -2.418552         -2.559449
     27     27  C        0  -1.579095         -1.895229          1.873271
     28     28  H        0  -2.164932         -2.424074          2.645403
     29     29  N        0  -4.469538          0.120848          0.020005
     30     30  N        0  -5.177184         -0.750965          0.017607
     31     31  O        0  -3.737316          1.049076          0.021811
     32     32  O        0   3.328680          2.861617         -0.123984
     33     33  H        0   3.926753          2.366556         -0.701786
     34     34  H        0   2.819270          3.422016         -0.728639
     35     35  O        0   1.391623         -3.986689         -0.227688
     36     36  H        0   2.161941         -3.856472         -0.799151
     37     37  H        0   0.668617         -4.185843         -0.841102
 ---------------------------------------------------------------------------------------------------
                         Z-Matrix orientation:                         
 ---------------------------------------------------------------------
 Center     Atomic      Atomic             Coordinates (Angstroms)
 Number     Number       Type             X           Y           Z
 ---------------------------------------------------------------------
      1          8           0        0.900099    2.465117    1.628213
      2          8           0       -1.285374    1.934388    1.486532
      3          6           0       -0.305023    2.559067    1.955174
      4          1           0       -0.533541    3.281321    2.758141
      5          8           0        2.367768   -1.718871   -1.330635
      6          8           0        2.981939    0.447062   -1.299212
      7          6           0        3.029157   -0.730233   -1.722707
      8          1           0        3.743510   -0.921111   -2.544845
      9          8           0       -2.083801   -0.833607    1.434896
     10          8           0        2.972293    0.405327    1.582706
     11          8           0        2.354479   -1.760590    1.552511
     12          6           0        3.033043   -0.788294    1.957169
     13          1           0        3.776218   -1.011444    2.742342
     14          8           0       -1.242569    1.943312   -1.374816
     15          8           0        0.917337    2.566887   -1.250820
     16          6           0       -0.249418    2.626390   -1.707628
     17          1           0       -0.422834    3.372410   -2.503698
     18         26           0       -1.359059    0.498425    0.053924
     19          8           0       -2.035546   -0.796046   -1.393996
     20         26           0        0.891320   -1.887198    0.158199
     21          8           0       -0.500548   -2.441547   -1.331654
     22          8           0       -0.495251   -2.427708    1.546231
     23         26           0        1.802823    1.326739    0.207378
     24          8           0        0.448194   -0.025695    0.096120
     25          6           0       -1.538630   -1.884980   -1.759583
     26          1           0       -2.083131   -2.418552   -2.559449
     27          6           0       -1.579095   -1.895229    1.873271
     28          1           0       -2.164932   -2.424074    2.645403
     29          7           0       -4.469538    0.120848    0.020005
     30          7           0       -5.177184   -0.750965    0.017607
     31          8           0       -3.737316    1.049076    0.021811
     32          8           0        3.328680    2.861617   -0.123984
     33          1           0        3.926753    2.366556   -0.701786
     34          1           0        2.819270    3.422016   -0.728639
     35          8           0        1.391623   -3.986689   -0.227688
     36          1           0        2.161941   -3.856472   -0.799151
     37          1           0        0.668617   -4.185843   -0.841102
 ---------------------------------------------------------------------
                    Distance matrix (angstroms):
                    1          2          3          4          5
     1  O    0.000000
     2  O    2.253450   0.000000
     3  C    1.252218   1.253370   0.000000
     4  H    1.999562   1.999118   1.103915   0.000000
     5  O    5.330534   5.884571   6.020059   7.080791   0.000000
     6  O    4.120245   5.308716   5.084851   6.070728   2.251546
     7  C    5.096255   6.001216   5.955087   6.990235   1.252422
     8  H    6.079962   7.049507   6.982294   8.004702   2.000848
     9  O    4.452259   2.881310   3.865873   4.592049   5.314915
    10  O    2.922121   4.524932   3.939306   4.684427   3.655848
    11  O    4.469625   5.187075   5.088666   5.934229   2.883478
    12  C    3.904145   5.126716   4.727316   5.470269   3.481123
    13  H    4.647561   5.989549   5.479481   6.082935   4.367302
    14  O    3.725787   2.861682   3.513827   4.401627   5.142769
    15  O    2.880883   3.570026   3.431126   4.322873   4.525245
    16  C    3.532030   3.428517   3.663843   4.522472   5.086559
    17  H    4.432383   4.328258   4.533977   5.263792   5.923232
    18  Fe   3.383793   2.029725   2.995328   3.967213   4.552213
    19  O    5.327940   4.039241   5.046626   6.010090   4.499422
    20  Fe   4.593872   4.594234   4.942634   5.958483   2.103535
    21  O    5.898981   5.263737   5.987287   7.034112   2.957955
    22  O    5.088562   4.433479   5.007130   5.836369   4.120156
    23  Fe   2.032139   3.397416   3.002738   3.973082   3.458379
    24  O    2.958998   2.963179   3.271760   4.357352   2.930399
    25  C    6.028922   5.018862   5.922057   6.936188   3.933387
    26  H    7.091290   5.996204   6.951272   7.947738   4.670122
    27  C    5.021860   3.860286   4.633651   5.354703   5.086634
    28  H    5.859461   4.594866   5.363522   5.935122   6.070548
    29  N    6.075766   3.946965   5.199325   5.742652   7.208158
    30  N    7.061912   4.951267   6.200680   6.732999   7.725341
    31  O    5.107966   2.990185   4.218839   4.768081   6.838325
    32  O    3.020830   4.974235   4.197408   4.837308   4.833242
    33  H    3.820896   5.669371   5.000442   5.718576   4.417760
    34  H    3.186475   4.895725   4.208175   4.839295   5.195669
    35  O    6.731401   6.720418   7.105661   8.089833   2.704136
    36  H    6.888166   7.116346   7.404820   8.418316   2.212279
    37  H    7.098336   6.833241   7.366203   8.376053   3.035244
                    6          7          8          9         10
     6  O    0.000000
     7  C    1.252039   0.000000
     8  H    2.000872   1.105733   0.000000
     9  O    5.897218   6.010281   7.057163   0.000000
    10  O    2.882236   3.495495   4.403509   5.207772   0.000000
    11  O    3.660568   3.499125   4.407092   4.535577   2.252510
    12  C    3.483207   3.680336   4.559664   5.143629   1.252455
    13  H    4.369471   4.535840   5.288060   6.006735   1.999573
    14  O    4.482293   5.051387   5.868123   4.038989   5.373769
    15  O    2.959490   3.943788   4.672032   5.270983   4.113886
    16  C    3.918921   4.692142   5.406401   5.021155   5.112616
    17  H    4.647680   5.418290   5.982845   5.996825   6.085160
    18  Fe   4.547294   4.891059   5.899567   2.051010   4.594176
    19  O    5.170054   5.075786   5.893860   2.829553   5.948319
    20  Fe   3.455938   3.073552   4.046574   3.404608   3.408128
    21  O    4.524691   3.942123   4.668574   3.570148   5.353392
    22  O    5.334013   5.097924   6.080611   2.253230   4.477865
    23  Fe   2.105697   3.075753   4.048929   4.612997   2.026866
    24  O    2.930924   3.235101   4.316894   2.975910   2.960877
    25  C    5.107436   4.711632   5.426480   3.406948   6.063401
    26  H    5.954400   5.448490   6.016003   4.297306   7.119624
    27  C    6.029428   5.960223   6.985612   1.254568   5.108045
    28  H    7.091804   6.994858   8.006701   2.000374   5.960362
    29  N    7.574382   7.745438   8.667081   2.933367   7.609455
    30  N    8.351082   8.388871   9.282989   3.403609   8.378575
    31  O    6.874293   7.210717   8.150590   2.876702   6.918790
    32  O    2.707668   3.942970   4.510175   6.736448   3.012169
    33  H    2.221272   3.382020   3.773486   7.136751   3.158531
    34  H    3.033540   4.274739   4.797455   6.843341   3.803438
    35  O    4.830675   3.939683   4.505370   4.978422   5.006581
    36  H    4.409406   3.373187   3.763662   5.670538   4.949025
    37  H    5.198570   4.276753   4.797518   4.898312   5.679842
                   11         12         13         14         15
    11  O    0.000000
    12  C    1.252820   0.000000
    13  H    1.999565   1.103903   0.000000
    14  O    5.935224   6.069980   7.132306   0.000000
    15  O    5.352672   5.101436   6.076430   2.251536   0.000000
    16  C    6.054286   5.988769   7.017251   1.250483   1.254405
    17  H    7.107319   7.010983   8.023163   1.997163   2.003654
    18  Fe   4.597747   4.956667   5.989855   2.035330   3.341088
    19  O    5.374437   6.076262   7.136686   2.851888   4.477648
    20  Fe   2.025085   3.005139   3.970816   4.645043   4.671711
    21  O    4.115008   5.102535   6.077283   4.447409   5.205895
    22  O    2.926781   3.912213   4.656386   5.310067   5.896175
    23  Fe   3.412522   3.008085   3.973340   3.486820   2.109122
    24  O    2.960550   3.275134   4.364623   2.983173   2.959024
    25  C    5.112899   5.993093   7.019829   3.858953   5.109768
    26  H    6.085517   7.016610   8.026264   4.597364   5.964052
    27  C    3.948926   4.743855   5.496884   5.039615   5.991878
    28  H    4.696775   5.492576   6.107551   6.007244   7.042061
    29  N    7.242623   7.801786   8.757037   3.959827   6.051159
    30  N    7.752498   8.436298   9.362448   4.967813   7.054094
    31  O    6.880932   7.277314   8.252286   2.995661   5.058570
    32  O    5.012435   4.211941   4.839082   4.827441   2.677910
    33  H    4.958552   4.221592   4.826548   5.230105   3.065641
    34  H    5.681468   4.998597   5.711307   4.370657   2.149713
    35  O    3.008607   4.206850   4.833162   6.589369   6.649895
    36  H    3.155964   4.215428   4.821021   6.749783   6.558398
    37  H    3.801758   4.996416   5.707457   6.442362   6.769719
                   16         17         18         19         20
    16  C    0.000000
    17  H    1.104693   0.000000
    18  Fe   2.977013   3.959512   0.000000
    19  O    3.873201   4.605247   2.056639   0.000000
    20  Fe   5.015483   6.039551   3.281200   3.488046   0.000000
    21  O    5.088065   5.931427   3.361592   2.251173   2.112880
    22  O    6.015974   7.074499   3.396380   3.698617   2.035034
    23  Fe   3.093224   4.060573   3.272178   4.669442   3.341055
    24  O    3.282335   4.366333   1.882192   2.997140   1.914525
    25  C    4.692252   5.425759   3.000279   1.251542   3.095569
    26  H    5.435029   6.024528   3.982807   1.998267   4.063903
    27  C    5.919115   6.945705   3.014634   3.477296   3.007405
    28  H    6.937237   7.946532   3.988257   4.357059   3.976820
    29  N    5.203063   5.772135   3.133496   2.960475   5.726268
    30  N    6.218186   6.779605   4.017508   3.444495   6.175559
    31  O    4.200513   4.770940   2.441384   2.881841   5.483118
    32  O    3.919955   4.471891   5.252735   6.615614   5.345240
    33  H    4.303445   4.814305   5.656927   6.784557   5.296022
    34  H    3.317874   3.696557   5.159285   6.465600   5.717624
    35  O    6.972521   7.913837   5.268947   4.825553   2.192504
    36  H    6.976208   7.864050   5.664831   5.228666   2.531608
    37  H    6.928216   7.815541   5.182172   4.371374   2.516340
                   21         22         23         24         25
    21  O    0.000000
    22  O    2.877923   0.000000
    23  Fe   4.676977   4.601037   0.000000
    24  O    2.962261   2.960165   1.917414   0.000000
    25  C    1.253198   3.508789   5.034817   3.293637   0.000000
    26  H    2.003142   4.402051   6.064913   4.380116   1.104973
    27  C    3.425386   1.251082   4.959198   3.280750   3.633094
    28  H    4.311318   1.999006   5.979602   4.368008   4.481828
    29  N    4.913831   4.961800   6.389976   4.920504   3.972468
    30  N    5.152620   5.202755   7.285147   5.672483   4.205172
    31  O    4.949039   4.992281   5.550196   4.321938   4.076306
    32  O    6.651692   6.737138   2.189496   4.084387   6.992573
    33  H    6.566246   6.898744   2.533550   4.296498   7.004634
    34  H    6.765071   7.097912   2.509876   4.264849   6.943943
    35  O    2.680768   3.022830   5.347045   4.084652   3.917942
    36  H    3.061767   3.821368   5.292234   4.291071   4.301562
    37  H    2.156422   3.185120   5.724884   4.270106   3.318059
                   26         27         28         29         30
    26  H    0.000000
    27  C    4.491873   0.000000
    28  H    5.205498   1.104115   0.000000
    29  N    4.335559   3.981686   4.322100   0.000000
    30  N    4.358352   4.207027   4.333390   1.122865   0.000000
    31  O    4.628572   4.093257   4.628001   1.182269   2.305078
    32  O    7.943511   7.120595   8.110968   8.267088   9.242322
    33  H    7.903599   7.423482   8.441708   8.721347   9.649774
    34  H    7.842043   7.374866   8.390661   8.036473   9.050631
    35  O    4.468789   4.196832   4.831718   7.161454   7.326616
    36  H    4.815278   4.998366   5.713016   7.776028   8.010869
    37  H    3.694340   4.203206   4.825821   6.759418   6.834410
                   31         32         33         34         35
    31  O    0.000000
    32  O    7.296222   0.000000
    33  H    7.810077   0.967797   0.000000
    34  H    7.013048   0.969099   1.530110   0.000000
    35  O    7.192162   7.117741   6.856776   7.561616   0.000000
    36  H    7.716192   6.851996   6.469167   7.308450   0.967944
    37  H    6.896466   7.566828   7.319070   7.906799   0.968853
                   36         37
    36  H    0.000000
    37  H    1.529791   0.000000
 Symmetry turned off by external request.
 Stoichiometry    C6H10Fe3N2O16(15)
 Framework group  C1[X(C6H10Fe3N2O16)]
 Deg. of freedom   105
 Full point group                 C1      NOp   1
 Rotational constants (GHZ):           0.2118455           0.1616404           0.1219772
 Leave Link  202 at Tue Jan 31 09:31:57 2023, MaxMem= 14763950080 cpu:               0.1 elap:               1.1
 (Enter /software/commercial/gaussian/g16/AVX2/g16/l301.exe)
 General basis read from cards:  (5D, 7F)
 Centers:       4      8     13     17     26     28     33     34     36     37
 S 3 1.00
     Exponent=  3.4061341000D+01 Coefficients=  6.0251978000D-03
     Exponent=  5.1235746000D+00 Coefficients=  4.5021094000D-02
     Exponent=  1.1646626000D+00 Coefficients=  2.0189726000D-01
 S 1 1.00
     Exponent=  3.2723041000D-01 Coefficients=  1.0000000000D+00
 S 1 1.00
     Exponent=  1.0307241000D-01 Coefficients=  1.0000000000D+00
 P 1 1.00
     Exponent=  8.0000000000D-01 Coefficients=  1.0000000000D+00
 ****
 Centers:       1      2      5      6      9     10     11     14     15     19
 Centers:      21     22     24     31     32     35
 S 6 1.00
     Exponent=  2.7032382631D+04 Coefficients=  2.1726302465D-04
     Exponent=  4.0523871392D+03 Coefficients=  1.6838662199D-03
     Exponent=  9.2232722710D+02 Coefficients=  8.7395616265D-03
     Exponent=  2.6124070989D+02 Coefficients=  3.5239968808D-02
     Exponent=  8.5354641351D+01 Coefficients=  1.1153519115D-01
     Exponent=  3.1035035245D+01 Coefficients=  2.5588953961D-01
 S 2 1.00
     Exponent=  1.2260860728D+01 Coefficients=  3.9768730901D-01
     Exponent=  4.9987076005D+00 Coefficients=  2.4627849430D-01
 S 1 1.00
     Exponent=  1.1703108158D+00 Coefficients=  1.0000000000D+00
 S 1 1.00
     Exponent=  4.6474740994D-01 Coefficients=  1.0000000000D+00
 S 1 1.00
     Exponent=  1.8504536357D-01 Coefficients=  1.0000000000D+00
 P 4 1.00
     Exponent=  6.3274954801D+01 Coefficients=  6.0685103418D-03
     Exponent=  1.4627049379D+01 Coefficients=  4.1912575824D-02
     Exponent=  4.4501223456D+00 Coefficients=  1.6153841088D-01
     Exponent=  1.5275799647D+00 Coefficients=  3.5706951311D-01
 P 1 1.00
     Exponent=  5.2935117943D-01 Coefficients=  4.4794207502D-01
 P 1 1.00
     Exponent=  1.7478421270D-01 Coefficients=  2.4446069663D-01
 D 1 1.00
     Exponent=  2.3140000000D+00 Coefficients=  1.0000000000D+00
 D 1 1.00
     Exponent=  6.4500000000D-01 Coefficients=  1.0000000000D+00
 F 1 1.00
     Exponent=  1.4280000000D+00 Coefficients=  1.0000000000D+00
 ****
 Centers:       3      7     12     16     25     27
 S 6 1.00
     Exponent=  1.3575349682D+04 Coefficients=  2.2245814352D-04
     Exponent=  2.0352333680D+03 Coefficients=  1.7232738252D-03
     Exponent=  4.6322562359D+02 Coefficients=  8.9255715314D-03
     Exponent=  1.3120019598D+02 Coefficients=  3.5727984502D-02
     Exponent=  4.2853015891D+01 Coefficients=  1.1076259931D-01
     Exponent=  1.5584185766D+01 Coefficients=  2.4295627626D-01
 S 2 1.00
     Exponent=  6.2067138508D+00 Coefficients=  4.1440263448D-01
     Exponent=  2.5764896527D+00 Coefficients=  2.3744968655D-01
 S 1 1.00
     Exponent=  5.7696339419D-01 Coefficients=  1.0000000000D+00
 S 1 1.00
     Exponent=  2.2972831358D-01 Coefficients=  1.0000000000D+00
 S 1 1.00
     Exponent=  9.5164440028D-02 Coefficients=  1.0000000000D+00
 P 4 1.00
     Exponent=  3.4697232244D+01 Coefficients=  5.3333657805D-03
     Exponent=  7.9582622826D+00 Coefficients=  3.5864109092D-02
     Exponent=  2.3780826883D+00 Coefficients=  1.4215873329D-01
     Exponent=  8.1433208183D-01 Coefficients=  3.4270471845D-01
 P 1 1.00
     Exponent=  2.8887547253D-01 Coefficients=  4.6445822433D-01
 P 1 1.00
     Exponent=  1.0056823671D-01 Coefficients=  2.4955789874D-01
 D 1 1.00
     Exponent=  1.0970000000D+00 Coefficients=  1.0000000000D+00
 D 1 1.00
     Exponent=  3.1800000000D-01 Coefficients=  1.0000000000D+00
 F 1 1.00
     Exponent=  7.6100000000D-01 Coefficients=  1.0000000000D+00
 ****
 Centers:      18     20     23
 S 8 1.00
     Exponent=  3.0078484637D+05 Coefficients=  2.2806273096D-04
     Exponent=  4.5088970557D+04 Coefficients=  1.7681788761D-03
     Exponent=  1.0262516317D+04 Coefficients=  9.1927083490D-03
     Exponent=  2.9052897293D+03 Coefficients=  3.7355495807D-02
     Exponent=  9.4611487137D+02 Coefficients=  1.2151108426D-01
     Exponent=  3.3987832894D+02 Coefficients=  2.8818881468D-01
     Exponent=  1.3194425588D+02 Coefficients=  4.1126612677D-01
     Exponent=  5.2111494077D+01 Coefficients=  2.1518583573D-01
 S 4 1.00
     Exponent=  3.2948839267D+02 Coefficients= -2.4745216477D-02
     Exponent=  1.0192332739D+02 Coefficients= -1.1683089050D-01
     Exponent=  1.6240462745D+01 Coefficients=  5.5293621136D-01
     Exponent=  6.8840675801D+00 Coefficients=  5.3601640182D-01
 S 2 1.00
     Exponent=  1.0470693782D+01 Coefficients= -2.2912708577D-01
     Exponent=  1.7360039648D+00 Coefficients=  7.1159319984D-01
 S 1 1.00
     Exponent=  7.2577288979D-01 Coefficients=  1.0000000000D+00
 S 1 1.00
     Exponent=  1.1595528203D-01 Coefficients=  1.0000000000D+00
 S 1 1.00
     Exponent=  4.1968227746D-02 Coefficients=  1.0000000000D+00
 P 6 1.00
     Exponent=  1.5853959970D+03 Coefficients=  2.3793960179D-03
     Exponent=  3.7538006499D+02 Coefficients=  1.9253154755D-02
     Exponent=  1.2031816501D+02 Coefficients=  9.0021836536D-02
     Exponent=  4.4788749031D+01 Coefficients=  2.5798172356D-01
     Exponent=  1.7829278584D+01 Coefficients=  4.1492649744D-01
     Exponent=  7.2247153786D+00 Coefficients=  2.4207474784D-01
 P 3 1.00
     Exponent=  2.8143219756D+01 Coefficients= -2.9041755152D-02
     Exponent=  3.8743241412D+00 Coefficients=  5.5312260343D-01
     Exponent=  1.5410752281D+00 Coefficients=  9.6771136842D-01
 P 1 1.00
     Exponent=  5.8285615250D-01 Coefficients=  1.0000000000D+00
 P 1 1.00
     Exponent=  1.3491500000D-01 Coefficients=  1.0000000000D+00
 D 4 1.00
     Exponent=  6.1996675034D+01 Coefficients=  1.1971972255D-02
     Exponent=  1.7873732552D+01 Coefficients=  7.3210135410D-02
     Exponent=  6.2744782934D+00 Coefficients=  2.3103094314D-01
     Exponent=  2.3552337175D+00 Coefficients=  3.9910706494D-01
 D 1 1.00
     Exponent=  8.5432239901D-01 Coefficients=  4.1391589765D-01
 D 1 1.00
     Exponent=  2.7869254413D-01 Coefficients=  2.1909269782D-01
 D 1 1.00
     Exponent=  9.1000000000D-02 Coefficients=  1.0000000000D+00
 F 1 1.00
     Exponent=  1.5980000000D+00 Coefficients=  1.0000000000D+00
 ****
 Centers:      29     30
 S 6 1.00
     Exponent=  1.9730800647D+04 Coefficients=  2.1887984991D-04
     Exponent=  2.9578958745D+03 Coefficients=  1.6960708803D-03
     Exponent=  6.7322133595D+02 Coefficients=  8.7954603538D-03
     Exponent=  1.9068249494D+02 Coefficients=  3.5359382605D-02
     Exponent=  6.2295441898D+01 Coefficients=  1.1095789217D-01
     Exponent=  2.2654161182D+01 Coefficients=  2.4982972552D-01
 S 2 1.00
     Exponent=  8.9791477428D+00 Coefficients=  4.0623896148D-01
     Exponent=  3.6863002370D+00 Coefficients=  2.4338217176D-01
 S 1 1.00
     Exponent=  8.4660076805D-01 Coefficients=  1.0000000000D+00
 S 1 1.00
     Exponent=  3.3647133771D-01 Coefficients=  1.0000000000D+00
 S 1 1.00
     Exponent=  1.3647653675D-01 Coefficients=  1.0000000000D+00
 P 4 1.00
     Exponent=  4.9200380510D+01 Coefficients=  5.5552416751D-03
     Exponent=  1.1346790537D+01 Coefficients=  3.8052379723D-02
     Exponent=  3.4273972411D+00 Coefficients=  1.4953671029D-01
     Exponent=  1.1785525134D+00 Coefficients=  3.4949305230D-01
 P 1 1.00
     Exponent=  4.1642204972D-01 Coefficients=  4.5843153697D-01
 P 1 1.00
     Exponent=  1.4260826011D-01 Coefficients=  2.4428771672D-01
 D 1 1.00
     Exponent=  1.6540000000D+00 Coefficients=  1.0000000000D+00
 D 1 1.00
     Exponent=  4.6900000000D-01 Coefficients=  1.0000000000D+00
 F 1 1.00
     Exponent=  1.0930000000D+00 Coefficients=  1.0000000000D+00
 ****
 Ernie: Thresh=  0.10000D-02 Tol=  0.10000D-05 Strict=F.
   939 basis functions,  1610 primitive gaussians,  1080 cartesian basis functions
   140 alpha electrons      126 beta electrons
       nuclear repulsion energy      5041.0108459057 Hartrees.
 IExCor= 4134 DFT=T Ex+Corr=M06L ExCW=0 ScaHFX=  0.000000
 ScaDFX=  1.000000  1.000000  1.000000  1.000000 ScalE2=  1.000000  1.000000
 IRadAn=      5 IRanWt=     -1 IRanGd=            0 ICorTp=0 IEmpDi=  4
 NAtoms=   37 NActive=   37 NUniq=   37 SFac= 1.00D+00 NAtFMM=   60 NAOKFM=F Big=F
 Integral buffers will be    131072 words long.
 Raffenetti 2 integral format.
 Two-electron integral symmetry is turned off.
 Leave Link  301 at Tue Jan 31 09:31:59 2023, MaxMem= 14763950080 cpu:               0.1 elap:               0.7
 (Enter /software/commercial/gaussian/g16/AVX2/g16/l302.exe)
 NPDir=0 NMtPBC=     1 NCelOv=     1 NCel=       1 NClECP=     1 NCelD=      1
         NCelK=      1 NCelE2=     1 NClLst=     1 CellRange=     0.0.
 One-electron integrals computed using PRISM.
 NBasis=   939 RedAO= T EigKep=  1.11D-04  NBF=   939
 NBsUse=   939 1.00D-06 EigRej= -1.00D+00 NBFU=   939
 Precomputing XC quadrature grid using
 IXCGrd= 4 IRadAn=           5 IRanWt=          -1 IRanGd=           0 AccXCQ= 0.00D+00.
 Generated NRdTot=       0 NPtTot=           0 NUsed=           0 NTot=          32
 NSgBfM=  1062  1062  1062  1062  1062 MxSgAt=    37 MxSgA2=    37.
 Leave Link  302 at Tue Jan 31 09:32:03 2023, MaxMem= 14763950080 cpu:               3.6 elap:               3.1
 (Enter /software/commercial/gaussian/g16/AVX2/g16/l303.exe)
 DipDrv:  MaxL=1.
 Leave Link  303 at Tue Jan 31 09:32:05 2023, MaxMem= 14763950080 cpu:               0.3 elap:               1.3
 (Enter /software/commercial/gaussian/g16/AVX2/g16/l401.exe)
 ExpMin= 4.20D-02 ExpMax= 3.01D+05 ExpMxC= 2.91D+03 IAcc=3 IRadAn=         5 AccDes= 0.00D+00
 Harris functional with IExCor= 1009 and IRadAn=       5 diagonalized for initial guess.
 HarFok:  IExCor= 1009 AccDes= 0.00D+00 IRadAn=         5 IDoV= 1 UseB2=F ITyADJ=14
 ICtDFT=  3500011 ScaDFX=  1.000000  1.000000  1.000000  1.000000
 FoFCou: FMM=F IPFlag=           0 FMFlag=      100000 FMFlg1=           0
         NFxFlg=           0 DoJE=T BraDBF=F KetDBF=T FulRan=T
         wScrn=  0.000000 ICntrl=       500 IOpCl=  0 I1Cent=   200000004 NGrid=           0
         NMat0=    1 NMatS0=      1 NMatT0=    0 NMatD0=    1 NMtDS0=    0 NMtDT0=    0
 Symmetry not used in FoFCou.
 Harris En= -5337.35598432309    
 JPrj=0 DoOrth=F DoCkMO=F.
 Initial guess <Sx>= 0.0000 <Sy>= 0.0000 <Sz>= 7.0000 <S**2>=56.0000 S= 7.0000
 Leave Link  401 at Tue Jan 31 09:32:31 2023, MaxMem= 14763950080 cpu:              47.9 elap:              25.4
 (Enter /software/commercial/gaussian/g16/AVX2/g16/l502.exe)
 Two-electron integral symmetry not used.
 UHF open shell SCF:
 Using DIIS extrapolation, IDIIS=  1040.
 NGot= 14763950080 LenX= 14761603162 LenY= 14760435682
 Requested convergence on RMS density matrix=1.00D-08 within 150 cycles.
 Requested convergence on MAX density matrix=1.00D-06.
 Requested convergence on             energy=1.00D-06.
 No special actions if energy rises.
 Fock matrices will be formed incrementally for  20 cycles.

 Cycle   1  Pass 1  IDiag  1:
 FoFJK:  IHMeth= 1 ICntrl=     500 DoSepK=F KAlg= 0 I1Cent=           0 FoldK=F
 IRaf= 750000000 NMat=       1 IRICut=       1 DoRegI=T DoRafI=F ISym2E= 0 IDoP0=0 IntGTp=1.
 FoFCou: FMM=F IPFlag=           0 FMFlag=      100000 FMFlg1=           0
         NFxFlg=           0 DoJE=T BraDBF=F KetDBF=F FulRan=T
         wScrn=  0.000000 ICntrl=       500 IOpCl=  0 I1Cent=           0 NGrid=           0
         NMat0=    1 NMatS0=      1 NMatT0=    0 NMatD0=    1 NMtDS0=    0 NMtDT0=    0
 Symmetry not used in FoFCou.
 E= -5338.66535118937    
 DIIS: error= 3.60D-02 at cycle   1 NSaved=   1.
 NSaved= 1 IEnMin= 1 EnMin= -5338.66535118937     IErMin= 1 ErrMin= 3.60D-02
 ErrMax= 3.60D-02  0.00D+00 EMaxC= 1.00D-01 BMatC= 8.91D+00 BMatP= 8.91D+00
 IDIUse=3 WtCom= 6.40D-01 WtEn= 3.60D-01
 Coeff-Com:  0.100D+01
 Coeff-En:   0.100D+01
 Coeff:      0.100D+01
 Gap=     0.421 Goal=   None    Shift=    0.000
 Gap=     0.015 Goal=   None    Shift=    0.000
 GapD=    0.015 DampG=0.250 DampE=0.250 DampFc=0.1250 IDamp=-1.
 Damping current iteration by 1.25D-01
 RMSDP=2.98D-03 MaxDP=4.57D-01              OVMax= 8.38D-01

 Cycle   2  Pass 1  IDiag  1:
 RMSU=  3.72D-04    CP:  9.98D-01
 E= -5338.88265505088     Delta-E=       -0.217303861507 Rises=F Damp=T
 DIIS: error= 1.85D-02 at cycle   2 NSaved=   2.
 NSaved= 2 IEnMin= 2 EnMin= -5338.88265505088     IErMin= 2 ErrMin= 1.85D-02
 ErrMax= 1.85D-02  0.00D+00 EMaxC= 1.00D-01 BMatC= 2.51D+00 BMatP= 8.91D+00
 IDIUse=3 WtCom= 8.15D-01 WtEn= 1.85D-01
 Coeff-Com: -0.394D+00 0.139D+01
 Coeff-En:   0.270D+00 0.730D+00
 Coeff:     -0.271D+00 0.127D+01
 Gap=     0.059 Goal=   None    Shift=    0.000
 Gap=     0.008 Goal=   None    Shift=    0.000
 RMSDP=2.16D-03 MaxDP=1.82D-01 DE=-2.17D-01 OVMax= 9.78D-01

 Cycle   3  Pass 1  IDiag  1:
 RMSU=  2.15D-03    CP:  9.84D-01  1.46D+00
 E= -5334.43387862311     Delta-E=        4.448776427764 Rises=F Damp=F
 DIIS: error= 7.58D-02 at cycle   3 NSaved=   3.
 NSaved= 3 IEnMin= 2 EnMin= -5338.88265505088     IErMin= 2 ErrMin= 1.85D-02
 ErrMax= 7.58D-02  0.00D+00 EMaxC= 1.00D-01 BMatC= 1.96D+01 BMatP= 2.51D+00
 IDIUse=2 WtCom= 0.00D+00 WtEn= 1.00D+00
 EnCoef did     5 forward-backward iterations
 Coeff-En:   0.153D+00 0.768D+00 0.789D-01
 Coeff:      0.153D+00 0.768D+00 0.789D-01
 Gap=     0.074 Goal=   None    Shift=    0.000
 Gap=     0.009 Goal=   None    Shift=    0.000
 RMSDP=2.10D-03 MaxDP=2.03D-01 DE= 4.45D+00 OVMax= 8.46D-01

 Cycle   4  Pass 1  IDiag  1:
 RMSU=  1.01D-03    CP:  9.99D-01  2.81D+00  1.77D-01
 E= -5338.28664138096     Delta-E=       -3.852762757846 Rises=F Damp=F
 DIIS: error= 6.92D-02 at cycle   4 NSaved=   4.
 NSaved= 4 IEnMin= 2 EnMin= -5338.88265505088     IErMin= 2 ErrMin= 1.85D-02
 ErrMax= 6.92D-02  0.00D+00 EMaxC= 1.00D-01 BMatC= 9.94D+00 BMatP= 2.51D+00
 IDIUse=2 WtCom= 0.00D+00 WtEn= 1.00D+00
 EnCoef did   100 forward-backward iterations
 Coeff-En:   0.544D+00 0.118D-01 0.566D-02 0.439D+00
 Coeff:      0.544D+00 0.118D-01 0.566D-02 0.439D+00
 Gap=     0.215 Goal=   None    Shift=    0.000
 Gap=     0.069 Goal=   None    Shift=    0.000
 RMSDP=1.05D-03 MaxDP=1.71D-01 DE=-3.85D+00 OVMax= 8.45D-01

 Cycle   5  Pass 1  IDiag  1:
 RMSU=  7.76D-04    CP:  9.99D-01  1.53D+00  2.10D-01  4.83D-01
 E= -5339.27138670324     Delta-E=       -0.984745322279 Rises=F Damp=F
 DIIS: error= 2.62D-02 at cycle   5 NSaved=   5.
 NSaved= 5 IEnMin= 5 EnMin= -5339.27138670324     IErMin= 2 ErrMin= 1.85D-02
 ErrMax= 2.62D-02  0.00D+00 EMaxC= 1.00D-01 BMatC= 2.49D+00 BMatP= 2.51D+00
 IDIUse=3 WtCom= 7.38D-01 WtEn= 2.62D-01
 EnCoef did     6 forward-backward iterations
 Coeff-Com:  0.325D+00 0.286D-01 0.186D-01 0.350D+00 0.278D+00
 Coeff-En:   0.259D+00 0.000D+00 0.000D+00 0.283D+00 0.458D+00
 Coeff:      0.308D+00 0.211D-01 0.137D-01 0.332D+00 0.325D+00
 Gap=     0.236 Goal=   None    Shift=    0.000
 Gap=     0.019 Goal=   None    Shift=    0.000
 RMSDP=9.43D-04 MaxDP=2.53D-01 DE=-9.85D-01 OVMax= 9.81D-01

 Cycle   6  Pass 1  IDiag  1:
 RMSU=  6.83D-04    CP:  1.00D+00  1.43D+00  1.58D-01  5.99D-01  1.91D-01
 E= -5339.21576479415     Delta-E=        0.055621909083 Rises=F Damp=F
 DIIS: error= 2.93D-02 at cycle   6 NSaved=   6.
 NSaved= 6 IEnMin= 5 EnMin= -5339.27138670324     IErMin= 2 ErrMin= 1.85D-02
 ErrMax= 2.93D-02  0.00D+00 EMaxC= 1.00D-01 BMatC= 3.11D+00 BMatP= 2.49D+00
 IDIUse=2 WtCom= 0.00D+00 WtEn= 1.00D+00
 EnCoef did     1 forward-backward iterations
 Coeff-En:   0.000D+00 0.000D+00 0.000D+00 0.787D-03 0.516D+00 0.483D+00
 Coeff:      0.000D+00 0.000D+00 0.000D+00 0.787D-03 0.516D+00 0.483D+00
 Gap=     0.258 Goal=   None    Shift=    0.000
 Gap=     0.012 Goal=   None    Shift=    0.000
 RMSDP=8.39D-04 MaxDP=2.05D-01 DE= 5.56D-02 OVMax= 7.54D-01

 Cycle   7  Pass 1  IDiag  1:
 RMSU=  4.69D-04    CP:  1.00D+00  2.08D+00  1.12D-01  7.40D-01  3.91D-01
                    CP:  1.08D-01
 E= -5339.23561242051     Delta-E=       -0.019847626354 Rises=F Damp=F
 DIIS: error= 4.94D-02 at cycle   7 NSaved=   7.
 NSaved= 7 IEnMin= 5 EnMin= -5339.27138670324     IErMin= 2 ErrMin= 1.85D-02
 ErrMax= 4.94D-02  0.00D+00 EMaxC= 1.00D-01 BMatC= 3.45D+00 BMatP= 2.49D+00
 IDIUse=2 WtCom= 0.00D+00 WtEn= 1.00D+00
 EnCoef did   100 forward-backward iterations
 Coeff-En:   0.000D+00 0.000D+00 0.000D+00 0.580D-03 0.411D+00 0.431D+00
 Coeff-En:   0.157D+00
 Coeff:      0.000D+00 0.000D+00 0.000D+00 0.580D-03 0.411D+00 0.431D+00
 Coeff:      0.157D+00
 Gap=     0.182 Goal=   None    Shift=    0.000
 Gap=     0.018 Goal=   None    Shift=    0.000
 RMSDP=5.30D-04 MaxDP=1.58D-01 DE=-1.98D-02 OVMax= 5.53D-01

 Cycle   8  Pass 1  IDiag  1:
 RMSU=  2.75D-04    CP:  1.00D+00  1.57D+00  1.41D-01  6.43D-01  3.43D-01
                    CP:  4.51D-01  3.31D-01
 E= -5339.71933125104     Delta-E=       -0.483718830534 Rises=F Damp=F
 DIIS: error= 1.04D-02 at cycle   8 NSaved=   8.
 NSaved= 8 IEnMin= 8 EnMin= -5339.71933125104     IErMin= 8 ErrMin= 1.04D-02
 ErrMax= 1.04D-02  0.00D+00 EMaxC= 1.00D-01 BMatC= 2.34D-01 BMatP= 2.49D+00
 IDIUse=3 WtCom= 8.96D-01 WtEn= 1.04D-01
 EnCoef did   100 forward-backward iterations
 Coeff-Com: -0.243D-01 0.417D-01-0.164D-02-0.233D-01 0.275D+00 0.189D+00
 Coeff-Com:  0.911D-01 0.452D+00
 Coeff-En:   0.000D+00 0.000D+00 0.000D+00 0.000D+00 0.167D+00 0.000D+00
 Coeff-En:   0.525D-02 0.827D+00
 Coeff:     -0.218D-01 0.373D-01-0.147D-02-0.209D-01 0.264D+00 0.170D+00
 Coeff:      0.822D-01 0.491D+00
 Gap=     0.181 Goal=   None    Shift=    0.000
 Gap=     0.034 Goal=   None    Shift=    0.000
 RMSDP=5.59D-04 MaxDP=1.90D-01 DE=-4.84D-01 OVMax= 7.87D-01

 Cycle   9  Pass 1  IDiag  1:
 RMSU=  4.90D-04    CP:  1.00D+00  1.65D+00  1.60D-01  5.95D-01  4.04D-01
                    CP:  4.80D-01  2.44D-01  8.84D-02
 E= -5339.33214426788     Delta-E=        0.387186983166 Rises=F Damp=F
 DIIS: error= 3.14D-02 at cycle   9 NSaved=   9.
 NSaved= 9 IEnMin= 8 EnMin= -5339.71933125104     IErMin= 8 ErrMin= 1.04D-02
 ErrMax= 3.14D-02  0.00D+00 EMaxC= 1.00D-01 BMatC= 2.40D+00 BMatP= 2.34D-01
 IDIUse=2 WtCom= 0.00D+00 WtEn= 1.00D+00
 EnCoef did   100 forward-backward iterations
 Coeff-En:   0.000D+00 0.000D+00 0.000D+00 0.000D+00 0.165D+00 0.000D+00
 Coeff-En:   0.377D-02 0.701D+00 0.130D+00
 Coeff:      0.000D+00 0.000D+00 0.000D+00 0.000D+00 0.165D+00 0.000D+00
 Coeff:      0.377D-02 0.701D+00 0.130D+00
 Gap=     0.154 Goal=   None    Shift=    0.000
 Gap=     0.011 Goal=   None    Shift=    0.000
 RMSDP=6.28D-04 MaxDP=2.38D-01 DE= 3.87D-01 OVMax= 9.17D-01

 Cycle  10  Pass 1  IDiag  1:
 RMSU=  1.31D-04    CP:  1.00D+00  1.60D+00  1.51D-01  5.42D-01  8.06D-01
                    CP:  1.21D-01  5.48D-01  9.50D-03  9.90D-02
 E= -5339.52816535209     Delta-E=       -0.196021084215 Rises=F Damp=F
 DIIS: error= 2.65D-02 at cycle  10 NSaved=  10.
 NSaved=10 IEnMin= 8 EnMin= -5339.71933125104     IErMin= 8 ErrMin= 1.04D-02
 ErrMax= 2.65D-02  0.00D+00 EMaxC= 1.00D-01 BMatC= 1.24D+00 BMatP= 2.34D-01
 IDIUse=2 WtCom= 0.00D+00 WtEn= 1.00D+00
 EnCoef did   100 forward-backward iterations
 Coeff-En:   0.000D+00 0.000D+00 0.000D+00 0.000D+00 0.495D-02 0.000D+00
 Coeff-En:   0.000D+00 0.660D+00 0.887D-01 0.246D+00
 Coeff:      0.000D+00 0.000D+00 0.000D+00 0.000D+00 0.495D-02 0.000D+00
 Coeff:      0.000D+00 0.660D+00 0.887D-01 0.246D+00
 Gap=     0.149 Goal=   None    Shift=    0.000
 Gap=     0.015 Goal=   None    Shift=    0.000
 RMSDP=4.80D-04 MaxDP=1.81D-01 DE=-1.96D-01 OVMax= 7.12D-01

 Cycle  11  Pass 1  IDiag  1:
 RMSU=  1.98D-04    CP:  1.00D+00  1.46D+00  1.57D-01  5.82D-01  4.72D-01
                    CP:  3.83D-01  2.23D-01  4.69D-01  5.08D-01  3.21D-01
 E= -5339.67444979704     Delta-E=       -0.146284444949 Rises=F Damp=F
 DIIS: error= 1.54D-02 at cycle  11 NSaved=  11.
 NSaved=11 IEnMin= 8 EnMin= -5339.71933125104     IErMin= 8 ErrMin= 1.04D-02
 ErrMax= 1.54D-02  0.00D+00 EMaxC= 1.00D-01 BMatC= 4.88D-01 BMatP= 2.34D-01
 IDIUse=2 WtCom= 0.00D+00 WtEn= 1.00D+00
 EnCoef did   100 forward-backward iterations
 Coeff-En:   0.000D+00 0.000D+00 0.000D+00 0.000D+00 0.341D-02 0.000D+00
 Coeff-En:   0.000D+00 0.570D+00 0.000D+00 0.199D+00 0.228D+00
 Coeff:      0.000D+00 0.000D+00 0.000D+00 0.000D+00 0.341D-02 0.000D+00
 Coeff:      0.000D+00 0.570D+00 0.000D+00 0.199D+00 0.228D+00
 Gap=     0.161 Goal=   None    Shift=    0.000
 Gap=     0.017 Goal=   None    Shift=    0.000
 RMSDP=2.68D-04 MaxDP=8.82D-02 DE=-1.46D-01 OVMax= 3.86D-01

 Cycle  12  Pass 1  IDiag  1:
 RMSU=  7.10D-05    CP:  1.00D+00  1.55D+00  1.46D-01  6.01D-01  5.44D-01
                    CP:  2.44D-01  4.53D-01  5.12D-01  1.25D-01  5.66D-01
                    CP:  6.47D-01
 E= -5339.74487955869     Delta-E=       -0.070429761650 Rises=F Damp=F
 DIIS: error= 1.02D-02 at cycle  12 NSaved=  12.
 NSaved=12 IEnMin=12 EnMin= -5339.74487955869     IErMin=12 ErrMin= 1.02D-02
 ErrMax= 1.02D-02  0.00D+00 EMaxC= 1.00D-01 BMatC= 1.03D-01 BMatP= 2.34D-01
 IDIUse=3 WtCom= 8.98D-01 WtEn= 1.02D-01
 EnCoef did     2 forward-backward iterations
 Coeff-Com: -0.204D-02 0.382D-02-0.188D-02-0.667D-03-0.277D-01-0.501D-02
 Coeff-Com: -0.614D-02 0.343D+00-0.348D-01-0.536D-02 0.165D+00 0.572D+00
 Coeff-En:   0.000D+00 0.000D+00 0.000D+00 0.000D+00 0.000D+00 0.000D+00
 Coeff-En:   0.000D+00 0.375D+00 0.000D+00 0.000D+00 0.813D-01 0.544D+00
 Coeff:     -0.183D-02 0.343D-02-0.169D-02-0.599D-03-0.249D-01-0.450D-02
 Coeff:     -0.552D-02 0.346D+00-0.312D-01-0.482D-02 0.156D+00 0.569D+00
 Gap=     0.164 Goal=   None    Shift=    0.000
 Gap=     0.019 Goal=   None    Shift=    0.000
 RMSDP=1.81D-04 MaxDP=5.55D-02 DE=-7.04D-02 OVMax= 2.76D-01

 Cycle  13  Pass 1  IDiag  1:
 RMSU=  4.09D-05    CP:  1.00D+00  1.52D+00  1.43D-01  6.15D-01  4.32D-01
                    CP:  3.60D-01  3.45D-01  8.70D-01  7.20D-02  2.67D-01
                    CP:  4.21D-01  7.32D-01
 E= -5339.76154957469     Delta-E=       -0.016670015995 Rises=F Damp=F
 DIIS: error= 2.79D-03 at cycle  13 NSaved=  13.
 NSaved=13 IEnMin=13 EnMin= -5339.76154957469     IErMin=13 ErrMin= 2.79D-03
 ErrMax= 2.79D-03  0.00D+00 EMaxC= 1.00D-01 BMatC= 1.98D-02 BMatP= 1.03D-01
 IDIUse=3 WtCom= 9.72D-01 WtEn= 2.79D-02
 EnCoef did     2 forward-backward iterations
 Coeff-Com:  0.874D-02-0.994D-02-0.233D-02-0.250D-02-0.845D-02-0.142D-01
 Coeff-Com:  0.221D-01 0.136D+00-0.114D-01-0.504D-01 0.110D+00 0.407D+00
 Coeff-Com:  0.415D+00
 Coeff-En:   0.000D+00 0.000D+00 0.000D+00 0.000D+00 0.000D+00 0.000D+00
 Coeff-En:   0.000D+00 0.000D+00 0.000D+00 0.000D+00 0.141D-01 0.262D+00
 Coeff-En:   0.724D+00
 Coeff:      0.850D-02-0.966D-02-0.227D-02-0.243D-02-0.822D-02-0.138D-01
 Coeff:      0.214D-01 0.132D+00-0.111D-01-0.490D-01 0.108D+00 0.403D+00
 Coeff:      0.424D+00
 Gap=     0.164 Goal=   None    Shift=    0.000
 Gap=     0.018 Goal=   None    Shift=    0.000
 RMSDP=6.01D-05 MaxDP=2.02D-02 DE=-1.67D-02 OVMax= 8.63D-02

 Cycle  14  Pass 1  IDiag  1:
 RMSU=  1.94D-05    CP:  1.00D+00  1.53D+00  1.43D-01  6.15D-01  4.51D-01
                    CP:  3.28D-01  3.89D-01  7.68D-01  1.10D-01  3.09D-01
                    CP:  5.43D-01  7.50D-01  5.62D-01
 E= -5339.76506454933     Delta-E=       -0.003514974642 Rises=F Damp=F
 DIIS: error= 1.27D-03 at cycle  14 NSaved=  14.
 NSaved=14 IEnMin=14 EnMin= -5339.76506454933     IErMin=14 ErrMin= 1.27D-03
 ErrMax= 1.27D-03  0.00D+00 EMaxC= 1.00D-01 BMatC= 1.22D-03 BMatP= 1.98D-02
 IDIUse=3 WtCom= 9.87D-01 WtEn= 1.27D-02
 Coeff-Com:  0.662D-02-0.778D-02-0.804D-03 0.836D-03-0.876D-02-0.108D-01
 Coeff-Com:  0.146D-01 0.295D-01-0.465D-02-0.184D-01 0.641D-01 0.162D+00
 Coeff-Com:  0.357D+00 0.416D+00
 Coeff-En:   0.000D+00 0.000D+00 0.000D+00 0.000D+00 0.000D+00 0.000D+00
 Coeff-En:   0.000D+00 0.000D+00 0.000D+00 0.000D+00 0.000D+00 0.000D+00
 Coeff-En:   0.108D+00 0.892D+00
 Coeff:      0.653D-02-0.768D-02-0.793D-03 0.825D-03-0.864D-02-0.106D-01
 Coeff:      0.145D-01 0.292D-01-0.459D-02-0.182D-01 0.633D-01 0.160D+00
 Coeff:      0.354D+00 0.422D+00
 Gap=     0.166 Goal=   None    Shift=    0.000
 Gap=     0.018 Goal=   None    Shift=    0.000
 RMSDP=1.58D-05 MaxDP=2.98D-03 DE=-3.51D-03 OVMax= 1.52D-02

 Cycle  15  Pass 1  IDiag  1:
 RMSU=  8.67D-06    CP:  1.00D+00  1.53D+00  1.42D-01  6.16D-01  4.45D-01
                    CP:  3.32D-01  3.80D-01  7.86D-01  1.11D-01  3.07D-01
                    CP:  5.30D-01  7.20D-01  7.22D-01  6.38D-01
 E= -5339.76527421418     Delta-E=       -0.000209664857 Rises=F Damp=F
 DIIS: error= 2.97D-04 at cycle  15 NSaved=  15.
 NSaved=15 IEnMin=15 EnMin= -5339.76527421418     IErMin=15 ErrMin= 2.97D-04
 ErrMax= 2.97D-04  0.00D+00 EMaxC= 1.00D-01 BMatC= 2.49D-04 BMatP= 1.22D-03
 IDIUse=3 WtCom= 9.97D-01 WtEn= 2.97D-03
 Coeff-Com:  0.371D-02-0.468D-02 0.405D-04 0.203D-02-0.725D-02-0.290D-02
 Coeff-Com:  0.183D-02-0.134D-01-0.400D-03 0.636D-02 0.158D-01 0.131D-01
 Coeff-Com:  0.105D+00 0.306D+00 0.575D+00
 Coeff-En:   0.000D+00 0.000D+00 0.000D+00 0.000D+00 0.000D+00 0.000D+00
 Coeff-En:   0.000D+00 0.000D+00 0.000D+00 0.000D+00 0.000D+00 0.000D+00
 Coeff-En:   0.000D+00 0.201D+00 0.799D+00
 Coeff:      0.370D-02-0.467D-02 0.404D-04 0.203D-02-0.723D-02-0.289D-02
 Coeff:      0.182D-02-0.134D-01-0.399D-03 0.634D-02 0.157D-01 0.131D-01
 Coeff:      0.105D+00 0.305D+00 0.576D+00
 Gap=     0.166 Goal=   None    Shift=    0.000
 Gap=     0.018 Goal=   None    Shift=    0.000
 RMSDP=1.09D-05 MaxDP=2.84D-03 DE=-2.10D-04 OVMax= 1.50D-02

 Cycle  16  Pass 1  IDiag  1:
 RMSU=  4.72D-06    CP:  1.00D+00  1.53D+00  1.42D-01  6.17D-01  4.39D-01
                    CP:  3.38D-01  3.75D-01  7.87D-01  1.20D-01  3.00D-01
                    CP:  5.36D-01  6.74D-01  7.56D-01  7.92D-01  7.91D-01
 E= -5339.76521416665     Delta-E=        0.000060047532 Rises=F Damp=F
 DIIS: error= 6.87D-04 at cycle  16 NSaved=  16.
 NSaved=16 IEnMin=15 EnMin= -5339.76527421418     IErMin=15 ErrMin= 2.97D-04
 ErrMax= 6.87D-04  0.00D+00 EMaxC= 1.00D-01 BMatC= 5.21D-04 BMatP= 2.49D-04
 IDIUse=3 WtCom= 9.97D-01 WtEn= 2.97D-03
 EnCoef did     2 forward-backward iterations
 Coeff-Com:  0.192D-02-0.224D-02-0.303D-04 0.208D-03 0.124D-03-0.694D-03
 Coeff-Com:  0.112D-03-0.846D-02 0.697D-04-0.481D-03-0.286D-02 0.251D-01
 Coeff-Com:  0.134D-01 0.130D+00 0.370D+00 0.474D+00
 Coeff-En:   0.000D+00 0.000D+00 0.000D+00 0.000D+00 0.000D+00 0.000D+00
 Coeff-En:   0.000D+00 0.000D+00 0.000D+00 0.000D+00 0.000D+00 0.000D+00
 Coeff-En:   0.000D+00 0.187D+00 0.603D+00 0.210D+00
 Coeff:      0.192D-02-0.223D-02-0.302D-04 0.207D-03 0.123D-03-0.692D-03
 Coeff:      0.112D-03-0.843D-02 0.695D-04-0.480D-03-0.286D-02 0.250D-01
 Coeff:      0.134D-01 0.130D+00 0.371D+00 0.473D+00
 Gap=     0.166 Goal=   None    Shift=    0.000
 Gap=     0.018 Goal=   None    Shift=    0.000
 RMSDP=7.31D-06 MaxDP=2.16D-03 DE= 6.00D-05 OVMax= 1.07D-02

 Cycle  17  Pass 1  IDiag  1:
 RMSU=  2.22D-06    CP:  1.00D+00  1.53D+00  1.42D-01  6.16D-01  4.44D-01
                    CP:  3.33D-01  3.79D-01  7.80D-01  1.17D-01  3.07D-01
                    CP:  5.40D-01  7.06D-01  7.32D-01  8.01D-01  8.94D-01
                    CP:  8.26D-01
 E= -5339.76531289012     Delta-E=       -0.000098723469 Rises=F Damp=F
 DIIS: error= 1.83D-04 at cycle  17 NSaved=  17.
 NSaved=17 IEnMin=17 EnMin= -5339.76531289012     IErMin=17 ErrMin= 1.83D-04
 ErrMax= 1.83D-04  0.00D+00 EMaxC= 1.00D-01 BMatC= 4.44D-05 BMatP= 2.49D-04
 IDIUse=3 WtCom= 9.98D-01 WtEn= 1.83D-03
 Coeff-Com:  0.137D-02-0.153D-02-0.266D-04-0.948D-04 0.119D-02-0.284D-03
 Coeff-Com: -0.279D-03-0.345D-02 0.663D-04-0.181D-02-0.518D-02 0.232D-01
 Coeff-Com: -0.204D-02 0.516D-01 0.180D+00 0.279D+00 0.478D+00
 Coeff-En:   0.000D+00 0.000D+00 0.000D+00 0.000D+00 0.000D+00 0.000D+00
 Coeff-En:   0.000D+00 0.000D+00 0.000D+00 0.000D+00 0.000D+00 0.000D+00
 Coeff-En:   0.000D+00 0.000D+00 0.000D+00 0.000D+00 0.100D+01
 Coeff:      0.137D-02-0.153D-02-0.265D-04-0.946D-04 0.119D-02-0.283D-03
 Coeff:     -0.278D-03-0.345D-02 0.662D-04-0.180D-02-0.517D-02 0.232D-01
 Coeff:     -0.203D-02 0.515D-01 0.180D+00 0.279D+00 0.479D+00
 Gap=     0.165 Goal=   None    Shift=    0.000
 Gap=     0.018 Goal=   None    Shift=    0.000
 RMSDP=1.97D-06 MaxDP=4.52D-04 DE=-9.87D-05 OVMax= 2.83D-03

 Cycle  18  Pass 1  IDiag  1:
 RMSU=  8.77D-07    CP:  1.00D+00  1.53D+00  1.42D-01  6.16D-01  4.45D-01
                    CP:  3.32D-01  3.80D-01  7.80D-01  1.16D-01  3.08D-01
                    CP:  5.39D-01  7.16D-01  7.31D-01  8.09D-01  9.36D-01
                    CP:  9.21D-01  1.28D+00
 E= -5339.76531995565     Delta-E=       -0.000007065533 Rises=F Damp=F
 DIIS: error= 7.73D-05 at cycle  18 NSaved=  18.
 NSaved=18 IEnMin=18 EnMin= -5339.76531995565     IErMin=18 ErrMin= 7.73D-05
 ErrMax= 7.73D-05  0.00D+00 EMaxC= 1.00D-01 BMatC= 8.46D-06 BMatP= 4.44D-05
 IDIUse=1 WtCom= 1.00D+00 WtEn= 0.00D+00
 Coeff-Com:  0.630D-03-0.766D-03 0.388D-05-0.252D-05 0.257D-03 0.623D-05
 Coeff-Com: -0.287D-03 0.112D-02 0.891D-04-0.105D-03-0.174D-02 0.144D-02
 Coeff-Com: -0.668D-02-0.338D-01-0.833D-01-0.129D+00 0.138D+00 0.111D+01
 Coeff:      0.630D-03-0.766D-03 0.388D-05-0.252D-05 0.257D-03 0.623D-05
 Coeff:     -0.287D-03 0.112D-02 0.891D-04-0.105D-03-0.174D-02 0.144D-02
 Coeff:     -0.668D-02-0.338D-01-0.833D-01-0.129D+00 0.138D+00 0.111D+01
 Gap=     0.165 Goal=   None    Shift=    0.000
 Gap=     0.018 Goal=   None    Shift=    0.000
 RMSDP=2.60D-06 MaxDP=4.65D-04 DE=-7.07D-06 OVMax= 3.91D-03

 Cycle  19  Pass 1  IDiag  1:
 RMSU=  6.08D-07    CP:  1.00D+00  1.53D+00  1.42D-01  6.16D-01  4.46D-01
                    CP:  3.31D-01  3.81D-01  7.78D-01  1.16D-01  3.10D-01
                    CP:  5.41D-01  7.22D-01  7.35D-01  8.41D-01  1.04D+00
                    CP:  1.14D+00  1.98D+00  1.67D+00
 E= -5339.76532168235     Delta-E=       -0.000001726694 Rises=F Damp=F
 DIIS: error= 2.16D-05 at cycle  19 NSaved=  19.
 NSaved=19 IEnMin=19 EnMin= -5339.76532168235     IErMin=19 ErrMin= 2.16D-05
 ErrMax= 2.16D-05  0.00D+00 EMaxC= 1.00D-01 BMatC= 1.23D-06 BMatP= 8.46D-06
 IDIUse=1 WtCom= 1.00D+00 WtEn= 0.00D+00
 Coeff-Com:  0.270D-03-0.347D-03 0.812D-05 0.201D-04-0.691D-05 0.433D-04
 Coeff-Com: -0.152D-03 0.155D-02 0.207D-04 0.159D-03-0.185D-03-0.317D-02
 Coeff-Com: -0.170D-02-0.261D-01-0.747D-01-0.127D+00-0.216D-01 0.676D+00
 Coeff-Com:  0.577D+00
 Coeff:      0.270D-03-0.347D-03 0.812D-05 0.201D-04-0.691D-05 0.433D-04
 Coeff:     -0.152D-03 0.155D-02 0.207D-04 0.159D-03-0.185D-03-0.317D-02
 Coeff:     -0.170D-02-0.261D-01-0.747D-01-0.127D+00-0.216D-01 0.676D+00
 Coeff:      0.577D+00
 Gap=     0.165 Goal=   None    Shift=    0.000
 Gap=     0.018 Goal=   None    Shift=    0.000
 RMSDP=1.05D-06 MaxDP=1.81D-04 DE=-1.73D-06 OVMax= 1.56D-03

 Cycle  20  Pass 1  IDiag  1:
 RMSU=  3.09D-07    CP:  1.00D+00  1.53D+00  1.42D-01  6.16D-01  4.46D-01
                    CP:  3.31D-01  3.81D-01  7.78D-01  1.16D-01  3.10D-01
                    CP:  5.40D-01  7.24D-01  7.38D-01  8.53D-01  1.08D+00
                    CP:  1.22D+00  2.28D+00  2.04D+00  1.21D+00
 E= -5339.76532192106     Delta-E=       -0.000000238713 Rises=F Damp=F
 DIIS: error= 1.72D-05 at cycle  20 NSaved=  20.
 NSaved=20 IEnMin=20 EnMin= -5339.76532192106     IErMin=20 ErrMin= 1.72D-05
 ErrMax= 1.72D-05  0.00D+00 EMaxC= 1.00D-01 BMatC= 5.40D-07 BMatP= 1.23D-06
 IDIUse=1 WtCom= 1.00D+00 WtEn= 0.00D+00
 Coeff-Com: -0.515D-04 0.535D-04 0.112D-04 0.432D-05-0.946D-04 0.407D-04
 Coeff-Com: -0.199D-04 0.794D-03-0.211D-04 0.141D-03 0.741D-03-0.350D-02
 Coeff-Com:  0.209D-02-0.307D-02-0.144D-01-0.273D-01-0.844D-01-0.250D-01
 Coeff-Com:  0.477D+00 0.677D+00
 Coeff:     -0.515D-04 0.535D-04 0.112D-04 0.432D-05-0.946D-04 0.407D-04
 Coeff:     -0.199D-04 0.794D-03-0.211D-04 0.141D-03 0.741D-03-0.350D-02
 Coeff:      0.209D-02-0.307D-02-0.144D-01-0.273D-01-0.844D-01-0.250D-01
 Coeff:      0.477D+00 0.677D+00
 Gap=     0.165 Goal=   None    Shift=    0.000
 Gap=     0.018 Goal=   None    Shift=    0.000
 RMSDP=9.64D-07 MaxDP=1.67D-04 DE=-2.39D-07 OVMax= 1.46D-03

 Cycle  21  Pass 1  IDiag  1:
 Restarting incremental Fock formation.
 E= -5339.76532205712     Delta-E=       -0.000000136059 Rises=F Damp=F
 DIIS: error= 1.07D-05 at cycle  21 NSaved=  20.
 NSaved=20 IEnMin=20 EnMin= -5339.76532205712     IErMin=20 ErrMin= 1.07D-05
 ErrMax= 1.07D-05  0.00D+00 EMaxC= 1.00D-01 BMatC= 1.89D-07 BMatP= 5.40D-07
 IDIUse=1 WtCom= 1.00D+00 WtEn= 0.00D+00
 Coeff-Com: -0.124D-03 0.146D-03-0.100D-04-0.361D-04 0.296D-04 0.441D-04
 Coeff-Com:  0.136D-03-0.964D-05 0.202D-05 0.686D-03-0.186D-02 0.204D-02
 Coeff-Com:  0.518D-02 0.112D-01 0.217D-01-0.551D-01-0.226D+00 0.182D+00
 Coeff-Com:  0.515D+00 0.545D+00
 Coeff:     -0.124D-03 0.146D-03-0.100D-04-0.361D-04 0.296D-04 0.441D-04
 Coeff:      0.136D-03-0.964D-05 0.202D-05 0.686D-03-0.186D-02 0.204D-02
 Coeff:      0.518D-02 0.112D-01 0.217D-01-0.551D-01-0.226D+00 0.182D+00
 Coeff:      0.515D+00 0.545D+00
 Gap=     0.165 Goal=   None    Shift=    0.000
 Gap=     0.018 Goal=   None    Shift=    0.000
 RMSDP=5.59D-07 MaxDP=9.53D-05 DE=-1.36D-07 OVMax= 8.46D-04

 Cycle  22  Pass 1  IDiag  1:
 RMSU=  5.59D-07    CP:  1.00D+00
 E= -5339.76532208816     Delta-E=       -0.000000031041 Rises=F Damp=F
 DIIS: error= 1.00D-05 at cycle  22 NSaved=  20.
 NSaved=20 IEnMin=20 EnMin= -5339.76532208816     IErMin=20 ErrMin= 1.00D-05
 ErrMax= 1.00D-05  0.00D+00 EMaxC= 1.00D-01 BMatC= 1.59D-07 BMatP= 1.89D-07
 IDIUse=1 WtCom= 1.00D+00 WtEn= 0.00D+00
 Coeff-Com: -0.109D-03 0.136D-03-0.484D-04 0.217D-04 0.342D-04-0.458D-03
 Coeff-Com: -0.729D-05 0.776D-04 0.307D-03-0.360D-03-0.724D-03 0.480D-02
 Coeff-Com:  0.140D-01 0.334D-01 0.541D-02-0.163D+00-0.972D-01 0.347D-01
 Coeff-Com:  0.375D+00 0.794D+00
 Coeff:     -0.109D-03 0.136D-03-0.484D-04 0.217D-04 0.342D-04-0.458D-03
 Coeff:     -0.729D-05 0.776D-04 0.307D-03-0.360D-03-0.724D-03 0.480D-02
 Coeff:      0.140D-01 0.334D-01 0.541D-02-0.163D+00-0.972D-01 0.347D-01
 Coeff:      0.375D+00 0.794D+00
 Gap=     0.165 Goal=   None    Shift=    0.000
 Gap=     0.018 Goal=   None    Shift=    0.000
 RMSDP=5.64D-07 MaxDP=9.47D-05 DE=-3.10D-08 OVMax= 8.66D-04

 Cycle  23  Pass 1  IDiag  1:
 RMSU=  2.64D-07    CP:  1.00D+00  1.89D+00
 E= -5339.76532213149     Delta-E=       -0.000000043327 Rises=F Damp=F
 DIIS: error= 3.11D-06 at cycle  23 NSaved=  20.
 NSaved=20 IEnMin=20 EnMin= -5339.76532213149     IErMin=20 ErrMin= 3.11D-06
 ErrMax= 3.11D-06  0.00D+00 EMaxC= 1.00D-01 BMatC= 2.54D-08 BMatP= 1.59D-07
 IDIUse=1 WtCom= 1.00D+00 WtEn= 0.00D+00
 Coeff-Com: -0.912D-06 0.845D-05-0.628D-05 0.282D-04-0.343D-03-0.669D-06
 Coeff-Com: -0.215D-04-0.143D-03 0.856D-03-0.125D-02 0.713D-03 0.408D-02
 Coeff-Com:  0.155D-01 0.352D-01 0.695D-02-0.126D+00-0.185D+00 0.225D-01
 Coeff-Com:  0.499D+00 0.729D+00
 Coeff:     -0.912D-06 0.845D-05-0.628D-05 0.282D-04-0.343D-03-0.669D-06
 Coeff:     -0.215D-04-0.143D-03 0.856D-03-0.125D-02 0.713D-03 0.408D-02
 Coeff:      0.155D-01 0.352D-01 0.695D-02-0.126D+00-0.185D+00 0.225D-01
 Coeff:      0.499D+00 0.729D+00
 Gap=     0.165 Goal=   None    Shift=    0.000
 Gap=     0.018 Goal=   None    Shift=    0.000
 RMSDP=2.32D-07 MaxDP=3.19D-05 DE=-4.33D-08 OVMax= 3.47D-04

 Cycle  24  Pass 1  IDiag  1:
 RMSU=  1.01D-07    CP:  1.00D+00  2.21D+00  1.41D+00
 E= -5339.76532213543     Delta-E=       -0.000000003944 Rises=F Damp=F
 DIIS: error= 3.28D-06 at cycle  24 NSaved=  20.
 NSaved=20 IEnMin=20 EnMin= -5339.76532213543     IErMin=19 ErrMin= 3.11D-06
 ErrMax= 3.28D-06  0.00D+00 EMaxC= 1.00D-01 BMatC= 2.37D-08 BMatP= 2.54D-08
 IDIUse=1 WtCom= 1.00D+00 WtEn= 0.00D+00
 Coeff-Com:  0.159D-04-0.818D-05 0.248D-04-0.806D-04 0.111D-04-0.628D-04
 Coeff-Com: -0.115D-03 0.432D-03-0.356D-03 0.104D-03 0.132D-02 0.579D-02
 Coeff-Com:  0.143D-01 0.168D-02-0.772D-01-0.123D+00-0.552D-01 0.158D+00
 Coeff-Com:  0.495D+00 0.580D+00
 Coeff:      0.159D-04-0.818D-05 0.248D-04-0.806D-04 0.111D-04-0.628D-04
 Coeff:     -0.115D-03 0.432D-03-0.356D-03 0.104D-03 0.132D-02 0.579D-02
 Coeff:      0.143D-01 0.168D-02-0.772D-01-0.123D+00-0.552D-01 0.158D+00
 Coeff:      0.495D+00 0.580D+00
 Gap=     0.165 Goal=   None    Shift=    0.000
 Gap=     0.018 Goal=   None    Shift=    0.000
 RMSDP=2.74D-07 MaxDP=4.39D-05 DE=-3.94D-09 OVMax= 4.21D-04

 Cycle  25  Pass 1  IDiag  1:
 RMSU=  6.00D-08    CP:  1.00D+00  2.68D+00  1.61D+00  1.26D+00
 E= -5339.76532214187     Delta-E=       -0.000000006439 Rises=F Damp=F
 DIIS: error= 1.84D-06 at cycle  25 NSaved=  20.
 NSaved=20 IEnMin=20 EnMin= -5339.76532214187     IErMin=20 ErrMin= 1.84D-06
 ErrMax= 1.84D-06  0.00D+00 EMaxC= 1.00D-01 BMatC= 5.49D-09 BMatP= 2.37D-08
 IDIUse=1 WtCom= 1.00D+00 WtEn= 0.00D+00
 Coeff-Com:  0.133D-04 0.699D-05 0.143D-04 0.594D-05-0.265D-04-0.592D-04
 Coeff-Com:  0.270D-04 0.166D-04-0.175D-03-0.125D-03 0.641D-03 0.311D-02
 Coeff-Com:  0.335D-02-0.256D-01-0.460D-01-0.450D-01 0.104D-01 0.183D+00
 Coeff-Com:  0.363D+00 0.554D+00
 Coeff:      0.133D-04 0.699D-05 0.143D-04 0.594D-05-0.265D-04-0.592D-04
 Coeff:      0.270D-04 0.166D-04-0.175D-03-0.125D-03 0.641D-03 0.311D-02
 Coeff:      0.335D-02-0.256D-01-0.460D-01-0.450D-01 0.104D-01 0.183D+00
 Coeff:      0.363D+00 0.554D+00
 Gap=     0.165 Goal=   None    Shift=    0.000
 Gap=     0.018 Goal=   None    Shift=    0.000
 RMSDP=9.43D-08 MaxDP=1.70D-05 DE=-6.44D-09 OVMax= 1.44D-04

 Cycle  26  Pass 1  IDiag  1:
 RMSU=  4.32D-08    CP:  1.00D+00  2.80D+00  1.66D+00  1.60D+00  1.49D+00
 E= -5339.76532214354     Delta-E=       -0.000000001670 Rises=F Damp=F
 DIIS: error= 3.82D-07 at cycle  26 NSaved=  20.
 NSaved=20 IEnMin=20 EnMin= -5339.76532214354     IErMin=20 ErrMin= 3.82D-07
 ErrMax= 3.82D-07  0.00D+00 EMaxC= 1.00D-01 BMatC= 9.61D-10 BMatP= 5.49D-09
 IDIUse=1 WtCom= 1.00D+00 WtEn= 0.00D+00
 Coeff-Com: -0.141D-05 0.367D-04-0.419D-05 0.111D-04 0.253D-04-0.157D-03
 Coeff-Com:  0.280D-03-0.637D-04-0.676D-03-0.211D-02-0.384D-02 0.177D-02
 Coeff-Com:  0.141D-01 0.154D-01-0.179D-01-0.596D-01-0.527D-01 0.387D-01
 Coeff-Com:  0.458D+00 0.609D+00
 Coeff:     -0.141D-05 0.367D-04-0.419D-05 0.111D-04 0.253D-04-0.157D-03
 Coeff:      0.280D-03-0.637D-04-0.676D-03-0.211D-02-0.384D-02 0.177D-02
 Coeff:      0.141D-01 0.154D-01-0.179D-01-0.596D-01-0.527D-01 0.387D-01
 Coeff:      0.458D+00 0.609D+00
 Gap=     0.165 Goal=   None    Shift=    0.000
 Gap=     0.018 Goal=   None    Shift=    0.000
 RMSDP=8.03D-08 MaxDP=1.37D-05 DE=-1.67D-09 OVMax= 1.24D-04

 Cycle  27  Pass 1  IDiag  1:
 RMSU=  2.21D-08    CP:  1.00D+00  2.88D+00  1.75D+00  2.01D+00  2.04D+00
                    CP:  1.67D+00
 E= -5339.76532214367     Delta-E=       -0.000000000129 Rises=F Damp=F
 DIIS: error= 1.65D-06 at cycle  27 NSaved=  20.
 NSaved=20 IEnMin=20 EnMin= -5339.76532214367     IErMin=19 ErrMin= 3.82D-07
 ErrMax= 1.65D-06  0.00D+00 EMaxC= 1.00D-01 BMatC= 3.02D-09 BMatP= 9.61D-10
 IDIUse=1 WtCom= 1.00D+00 WtEn= 0.00D+00
 Coeff-Com: -0.200D-04 0.645D-06 0.356D-05 0.339D-05 0.954D-05 0.787D-04
 Coeff-Com:  0.156D-03 0.109D-03-0.149D-02-0.372D-02-0.368D-02 0.172D-01
 Coeff-Com:  0.265D-01 0.136D-01-0.233D-01-0.888D-01-0.118D+00-0.135D+00
 Coeff-Com:  0.151D+00 0.117D+01
 Coeff:     -0.200D-04 0.645D-06 0.356D-05 0.339D-05 0.954D-05 0.787D-04
 Coeff:      0.156D-03 0.109D-03-0.149D-02-0.372D-02-0.368D-02 0.172D-01
 Coeff:      0.265D-01 0.136D-01-0.233D-01-0.888D-01-0.118D+00-0.135D+00
 Coeff:      0.151D+00 0.117D+01
 Gap=     0.165 Goal=   None    Shift=    0.000
 Gap=     0.018 Goal=   None    Shift=    0.000
 RMSDP=9.93D-08 MaxDP=1.73D-05 DE=-1.29D-10 OVMax= 1.53D-04

 Cycle  28  Pass 1  IDiag  1:
 RMSU=  3.15D-08    CP:  1.00D+00  2.94D+00  1.85D+00  2.66D+00  2.79D+00
                    CP:  1.97D+00  1.64D+00
 E= -5339.76532214473     Delta-E=       -0.000000001062 Rises=F Damp=F
 DIIS: error= 2.31D-07 at cycle  28 NSaved=  20.
 NSaved=20 IEnMin=20 EnMin= -5339.76532214473     IErMin=20 ErrMin= 2.31D-07
 ErrMax= 2.31D-07  0.00D+00 EMaxC= 1.00D-01 BMatC= 3.10D-10 BMatP= 9.61D-10
 IDIUse=1 WtCom= 1.00D+00 WtEn= 0.00D+00
 Coeff-Com: -0.232D-04-0.852D-05 0.205D-05 0.169D-03-0.463D-04 0.134D-03
 Coeff-Com:  0.283D-03-0.742D-03-0.192D-02-0.278D-02 0.126D-01 0.213D-01
 Coeff-Com:  0.288D-01 0.105D-01-0.665D-01-0.172D+00-0.520D+00-0.338D+00
 Coeff-Com:  0.117D+01 0.853D+00
 Coeff:     -0.232D-04-0.852D-05 0.205D-05 0.169D-03-0.463D-04 0.134D-03
 Coeff:      0.283D-03-0.742D-03-0.192D-02-0.278D-02 0.126D-01 0.213D-01
 Coeff:      0.288D-01 0.105D-01-0.665D-01-0.172D+00-0.520D+00-0.338D+00
 Coeff:      0.117D+01 0.853D+00
 Gap=     0.165 Goal=   None    Shift=    0.000
 Gap=     0.018 Goal=   None    Shift=    0.000
 RMSDP=1.22D-07 MaxDP=2.16D-05 DE=-1.06D-09 OVMax= 1.88D-04

 Cycle  29  Pass 1  IDiag  1:
 RMSU=  6.93D-08    CP:  1.00D+00  3.00D+00  1.95D+00  3.00D+00  3.00D+00
                    CP:  2.57D+00  2.65D+00  2.04D+00
 E= -5339.76532214478     Delta-E=       -0.000000000053 Rises=F Damp=F
 DIIS: error= 8.17D-07 at cycle  29 NSaved=  20.
 NSaved=20 IEnMin=20 EnMin= -5339.76532214478     IErMin=19 ErrMin= 2.31D-07
 ErrMax= 8.17D-07  0.00D+00 EMaxC= 1.00D-01 BMatC= 9.74D-10 BMatP= 3.10D-10
 IDIUse=1 WtCom= 1.00D+00 WtEn= 0.00D+00
 Coeff-Com: -0.164D-04 0.104D-04 0.477D-04-0.838D-04 0.108D-03 0.361D-03
 Coeff-Com:  0.660D-03 0.761D-03-0.572D-03 0.248D-03 0.150D-02 0.934D-02
 Coeff-Com:  0.107D-01-0.129D-01-0.745D-01-0.197D+00-0.166D+00 0.240D+00
 Coeff-Com:  0.474D+00 0.713D+00
 Coeff:     -0.164D-04 0.104D-04 0.477D-04-0.838D-04 0.108D-03 0.361D-03
 Coeff:      0.660D-03 0.761D-03-0.572D-03 0.248D-03 0.150D-02 0.934D-02
[...]
     2  O(17)              0.10169      -4.40309      -1.57113      -1.46871
     3  C(13)             -0.00382      -0.30687      -0.10950      -0.10236
     4  H(1)               0.00767       2.44862       0.87373       0.81677
     5  O(17)              0.09645      -4.17615      -1.49015      -1.39301
     6  O(17)              0.09601      -4.15710      -1.48336      -1.38666
     7  C(13)             -0.00499      -0.40082      -0.14302      -0.13370
     8  H(1)               0.00707       2.25804       0.80572       0.75320
     9  O(17)              0.09954      -4.31015      -1.53797      -1.43771
    10  O(17)              0.10989      -4.75814      -1.69782      -1.58715
    11  O(17)              0.11019      -4.77104      -1.70242      -1.59145
    12  C(13)             -0.00248      -0.19905      -0.07103      -0.06640
    13  H(1)               0.00791       2.52394       0.90061       0.84190
    14  O(17)              0.09745      -4.21943      -1.50560      -1.40745
    15  O(17)              0.09604      -4.15839      -1.48382      -1.38709
    16  C(13)             -0.00409      -0.32840      -0.11718      -0.10954
    17  H(1)               0.00719       2.29687       0.81958       0.76615
    18  Fe(57)             0.60792       6.29805       2.24730       2.10080
    19  O(17)              0.09551      -4.13573      -1.47573      -1.37953
    20  Fe(57)             0.58446       6.05499       2.16057       2.01973
    21  O(17)              0.09492      -4.10992      -1.46652      -1.37092
    22  O(17)              0.10579      -4.58048      -1.63443      -1.52788
    23  Fe(57)             0.58321       6.04205       2.15595       2.01541
    24  O(17)              0.42407     -18.36208      -6.55205      -6.12493
    25  C(13)             -0.00399      -0.32030      -0.11429      -0.10684
    26  H(1)               0.00705       2.25243       0.80372       0.75133
    27  C(13)             -0.00361      -0.28962      -0.10334      -0.09661
    28  H(1)               0.00751       2.39713       0.85536       0.79960
    29  N(14)              0.00022       0.00515       0.00184       0.00172
    30  N(14)              0.00270       0.06230       0.02223       0.02078
    31  O(17)              0.03778      -1.63595      -0.58375      -0.54570
    32  O(17)              0.05207      -2.25446      -0.80445      -0.75201
    33  H(1)              -0.00014      -0.04552      -0.01624      -0.01519
    34  H(1)              -0.00021      -0.06666      -0.02378      -0.02223
    35  O(17)              0.05122      -2.21769      -0.79133      -0.73974
    36  H(1)              -0.00015      -0.04934      -0.01761      -0.01646
    37  H(1)              -0.00021      -0.06803      -0.02428      -0.02269
 --------------------------------------------------------
       Center         ----  Spin Dipole Couplings  ----
                      3XX-RR        3YY-RR        3ZZ-RR
 --------------------------------------------------------
     1   Atom       -0.176538      0.077027      0.099512
     2   Atom       -0.143093      0.061966      0.081127
     3   Atom        0.030801     -0.009464     -0.021337
     4   Atom       -0.009445      0.005505      0.003940
     5   Atom        0.061951     -0.152092      0.090141
     6   Atom        0.066836     -0.156356      0.089520
     7   Atom       -0.006237      0.021318     -0.015081
     8   Atom        0.005199     -0.010174      0.004975
     9   Atom        0.001088     -0.063314      0.062226
    10   Atom        0.093844     -0.175425      0.081582
    11   Atom        0.063515     -0.146068      0.082553
    12   Atom       -0.007879      0.034264     -0.026385
    13   Atom        0.006550     -0.008902      0.002352
    14   Atom       -0.152001      0.060530      0.091470
    15   Atom       -0.152841      0.083269      0.069572
    16   Atom        0.019793     -0.000520     -0.019273
    17   Atom       -0.010969      0.007403      0.003566
    18   Atom        0.670590     -0.183297     -0.487293
    19   Atom       -0.015857     -0.073613      0.089470
    20   Atom       -0.230090      0.821996     -0.591906
    21   Atom       -0.035654     -0.042721      0.078374
    22   Atom       -0.056618     -0.025139      0.081757
    23   Atom        0.192808      0.382289     -0.575097
    24   Atom        0.018266     -0.002393     -0.015873
    25   Atom        0.004760      0.012339     -0.017099
    26   Atom       -0.002444     -0.001780      0.004224
    27   Atom        0.017987      0.008653     -0.026640
    28   Atom        0.001022     -0.002515      0.001493
    29   Atom        0.048738     -0.017813     -0.030924
    30   Atom        0.029203     -0.004034     -0.025169
    31   Atom        0.112929     -0.052051     -0.060878
    32   Atom        0.063899      0.075281     -0.139180
    33   Atom        0.049630     -0.017192     -0.032437
    34   Atom       -0.017475      0.049534     -0.032059
    35   Atom       -0.137507      0.273140     -0.135632
    36   Atom       -0.009894      0.041088     -0.031195
    37   Atom       -0.041780      0.070749     -0.028969
 --------------------------------------------------------
                        XY            XZ            YZ
 --------------------------------------------------------
     1   Atom       -0.049228     -0.053187      0.235541
     2   Atom       -0.097845     -0.096910      0.216044
     3   Atom        0.005149     -0.016366      0.077695
     4   Atom       -0.006018     -0.008728      0.030872
     5   Atom       -0.068637     -0.220894      0.064509
     6   Atom       -0.058939     -0.222385      0.054030
     7   Atom        0.009822     -0.071150      0.020777
     8   Atom       -0.004256     -0.029188      0.008052
     9   Atom        0.140824     -0.183656     -0.138665
    10   Atom       -0.054715      0.230313     -0.049133
    11   Atom       -0.102150      0.219723     -0.087235
    12   Atom        0.011791      0.081223     -0.022195
    13   Atom       -0.005331      0.030656     -0.008913
    14   Atom       -0.090613      0.078068     -0.234022
    15   Atom       -0.061441      0.047646     -0.214859
    16   Atom        0.013263      0.020070     -0.072785
    17   Atom       -0.003497      0.007270     -0.030162
    18   Atom       -0.285432      0.177036     -0.047846
    19   Atom        0.129656      0.184313      0.155232
    20   Atom       -0.166089      0.031707     -0.158449
    21   Atom        0.126402      0.157941      0.156245
    22   Atom        0.140511     -0.167776     -0.174787
    23   Atom        0.541145      0.126859      0.146420
    24   Atom       -0.008240     -0.014519      0.004145
    25   Atom       -0.015212      0.053458      0.052102
    26   Atom        0.009342      0.021978      0.021439
    27   Atom       -0.016372     -0.053883     -0.056025
    28   Atom        0.010551     -0.023088     -0.021409
    29   Atom        0.006727      0.001307      0.000080
    30   Atom       -0.011938      0.000974     -0.000270
    31   Atom       -0.049583      0.003049     -0.000929
    32   Atom        0.231107     -0.037861     -0.038110
    33   Atom        0.046856     -0.044249     -0.014755
    34   Atom        0.047761     -0.015171     -0.046277
    35   Atom       -0.099531     -0.014898      0.061707
    36   Atom       -0.050534     -0.031003      0.037127
    37   Atom        0.007452      0.011228      0.049893
 --------------------------------------------------------


 ---------------------------------------------------------------------------------
              Anisotropic Spin Dipole Couplings in Principal Axis System
 ---------------------------------------------------------------------------------

       Atom             a.u.   MegaHertz   Gauss  10(-4) cm-1        Axes

              Baa    -0.1868    13.520     4.824     4.510  0.9897  0.0773  0.1202
     1 O(17)  Bbb    -0.1475    10.674     3.809     3.560  0.0267  0.7263 -0.6868
              Bcc     0.3344   -24.194    -8.633    -8.070 -0.1404  0.6830  0.7168
 
              Baa    -0.1836    13.288     4.742     4.433  0.9559  0.2588  0.1387
     2 O(17)  Bbb    -0.1444    10.448     3.728     3.485  0.0869 -0.7005  0.7084
              Bcc     0.3280   -23.736    -8.470    -7.918 -0.2805  0.6651  0.6921
 
              Baa    -0.0952   -12.780    -4.560    -4.263  0.1224 -0.6703  0.7319
     3 C(13)  Bbb     0.0310     4.163     1.485     1.389  0.9668  0.2473  0.0648
              Bcc     0.0642     8.617     3.075     2.874 -0.2244  0.6996  0.6783
 
              Baa    -0.0264   -14.104    -5.033    -4.705  0.1331 -0.6757  0.7250
     4 H(1)   Bbb    -0.0115    -6.114    -2.182    -2.039  0.9675  0.2472  0.0528
              Bcc     0.0379    20.218     7.214     6.744 -0.2149  0.6945  0.6867
 
              Baa    -0.1722    12.461     4.446     4.157  0.2850  0.9585  0.0042
     5 O(17)  Bbb    -0.1440    10.423     3.719     3.477  0.6829 -0.2061  0.7009
              Bcc     0.3163   -22.884    -8.166    -7.633 -0.6727  0.1968  0.7133
 
              Baa    -0.1710    12.372     4.415     4.127  0.2580  0.9659  0.0199
     6 O(17)  Bbb    -0.1434    10.375     3.702     3.461  0.6857 -0.1976  0.7006
              Bcc     0.3144   -22.748    -8.117    -7.588 -0.6806  0.1671  0.7133
 
              Baa    -0.0864   -11.594    -4.137    -3.867  0.6640 -0.1995  0.7206
     7 C(13)  Bbb     0.0244     3.279     1.170     1.094  0.2724  0.9621  0.0154
              Bcc     0.0620     8.315     2.967     2.774  0.6963 -0.1860 -0.6932
 
              Baa    -0.0247   -13.155    -4.694    -4.388  0.6701 -0.2005  0.7146
     8 H(1)   Bbb    -0.0113    -6.011    -2.145    -2.005  0.2730  0.9619  0.0138
              Bcc     0.0359    19.166     6.839     6.393 -0.6902  0.1859  0.6993
 
              Baa    -0.1762    12.752     4.550     4.254 -0.6843  0.7213 -0.1076
     9 O(17)  Bbb    -0.1431    10.351     3.694     3.453  0.4318  0.5196  0.7373
              Bcc     0.3193   -23.103    -8.244    -7.706 -0.5877 -0.4580  0.6670
 
              Baa    -0.1863    13.483     4.811     4.497  0.1499  0.9873  0.0522
    10 O(17)  Bbb    -0.1425    10.310     3.679     3.439 -0.6885  0.0663  0.7222
              Bcc     0.3288   -23.793    -8.490    -7.936  0.7096 -0.1442  0.6897
 
              Baa    -0.1877    13.579     4.846     4.530  0.3953  0.9182 -0.0250
    11 O(17)  Bbb    -0.1428    10.334     3.687     3.447 -0.6269  0.2895  0.7233
              Bcc     0.3305   -23.913    -8.533    -7.977  0.6714 -0.2702  0.6901
 
              Baa    -0.1032   -13.851    -4.942    -4.620 -0.6509  0.1751  0.7387
    12 C(13)  Bbb     0.0373     5.009     1.787     1.671  0.2722  0.9622  0.0118
              Bcc     0.0659     8.842     3.155     2.950  0.7087 -0.2088  0.6740
 
              Baa    -0.0268   -14.291    -5.099    -4.767 -0.6514  0.1739  0.7386
    13 H(1)   Bbb    -0.0106    -5.631    -2.009    -1.878  0.2735  0.9618  0.0147
              Bcc     0.0373    19.922     7.109     6.645  0.7078 -0.2115  0.6740
 
              Baa    -0.1864    13.484     4.812     4.498  0.8877  0.4434  0.1241
    14 O(17)  Bbb    -0.1530    11.070     3.950     3.692 -0.3957  0.5970  0.6979
              Bcc     0.3393   -24.554    -8.761    -8.190  0.2354 -0.6686  0.7054
 
              Baa    -0.1683    12.177     4.345     4.062  0.9490  0.3039  0.0844
    15 O(17)  Bbb    -0.1362     9.854     3.516     3.287 -0.2678  0.6347  0.7249
              Bcc     0.3045   -22.030    -7.861    -7.348 -0.1667  0.7105 -0.6837
 
              Baa    -0.0885   -11.880    -4.239    -3.963 -0.2150  0.6414  0.7364
    16 C(13)  Bbb     0.0248     3.324     1.186     1.109  0.9732  0.2039  0.1065
              Bcc     0.0638     8.556     3.053     2.854 -0.0819  0.7396 -0.6681
 
              Baa    -0.0254   -13.534    -4.829    -4.515 -0.2109  0.6497  0.7303
    17 H(1)   Bbb    -0.0115    -6.150    -2.195    -2.052  0.9650  0.2575  0.0497
              Bcc     0.0369    19.685     7.024     6.566 -0.1557  0.7153 -0.6813
 
              Baa    -0.5139    -8.896    -3.174    -2.967 -0.1432  0.0196  0.9895
    18 Fe(57) Bbb    -0.2698    -4.671    -1.667    -1.558  0.2865  0.9578  0.0225
              Bcc     0.7837    13.567     4.841     4.526  0.9473 -0.2867  0.1428
 
              Baa    -0.1782    12.898     4.602     4.302 -0.5366  0.8359 -0.1153
    19 O(17)  Bbb    -0.1515    10.961     3.911     3.656 -0.6436 -0.3170  0.6966
              Bcc     0.3297   -23.858    -8.513    -7.958  0.5458  0.4480  0.7081
 
              Baa    -0.6099   -10.560    -3.768    -3.522 -0.0367  0.1057  0.9937
    20 Fe(57) Bbb    -0.2555    -4.424    -1.579    -1.476  0.9877  0.1552  0.0200
              Bcc     0.8655    14.984     5.347     4.998 -0.1521  0.9822 -0.1101
 
              Baa    -0.1657    11.991     4.279     4.000 -0.6718  0.7397 -0.0388
    21 O(17)  Bbb    -0.1393    10.081     3.597     3.363 -0.5372 -0.4504  0.7131
              Bcc     0.3050   -22.071    -7.876    -7.362  0.5100  0.4999  0.7000
 
              Baa    -0.1835    13.279     4.738     4.429  0.8133 -0.5640  0.1428
    22 O(17)  Bbb    -0.1500    10.854     3.873     3.620  0.3155  0.6337  0.7063
              Bcc     0.3335   -24.133    -8.611    -8.050 -0.4889 -0.5294  0.6933
 
              Baa    -0.6012   -10.409    -3.714    -3.472 -0.0924 -0.0967  0.9910
    23 Fe(57) Bbb    -0.2618    -4.533    -1.617    -1.512  0.7647 -0.6444  0.0085
              Bcc     0.8630    14.941     5.331     4.984  0.6378  0.7586  0.1335
 
              Baa    -0.0213     1.540     0.549     0.514  0.3327 -0.0614  0.9410
    24 O(17)  Bbb    -0.0052     0.379     0.135     0.126  0.3052  0.9512 -0.0458
              Bcc     0.0265    -1.918    -0.685    -0.640  0.8923 -0.3024 -0.3352
 
              Baa    -0.0868   -11.648    -4.156    -3.885 -0.5033 -0.4612  0.7307
    25 C(13)  Bbb     0.0237     3.186     1.137     1.063  0.7193 -0.6922  0.0585
              Bcc     0.0631     8.462     3.019     2.823  0.4788  0.5551  0.6801
 
              Baa    -0.0250   -13.354    -4.765    -4.455 -0.5135 -0.4610  0.7237
    26 H(1)   Bbb    -0.0114    -6.101    -2.177    -2.035 -0.6883  0.7250 -0.0266
              Bcc     0.0365    19.456     6.942     6.490  0.5124  0.5118  0.6896
 
              Baa    -0.0936   -12.560    -4.482    -4.189  0.4370  0.4850  0.7575
    27 C(13)  Bbb     0.0296     3.978     1.419     1.327 -0.6804  0.7291 -0.0743
              Bcc     0.0640     8.582     3.062     2.863 -0.5883 -0.4829  0.6486
 
              Baa    -0.0261   -13.922    -4.968    -4.644  0.4532  0.4795  0.7514
    28 H(1)   Bbb    -0.0114    -6.074    -2.167    -2.026 -0.6920  0.7207 -0.0425
              Bcc     0.0375    19.996     7.135     6.670 -0.5619 -0.5007  0.6584
 
              Baa    -0.0309    -1.194    -0.426    -0.398 -0.0166  0.0024  0.9999
    29 N(14)  Bbb    -0.0185    -0.713    -0.254    -0.238 -0.0995  0.9950 -0.0040
              Bcc     0.0494     1.906     0.680     0.636  0.9949  0.0996  0.0163
 
              Baa    -0.0252    -0.971    -0.347    -0.324 -0.0172  0.0031  0.9998
    30 N(14)  Bbb    -0.0079    -0.304    -0.108    -0.101  0.3064  0.9519  0.0024
              Bcc     0.0331     1.275     0.455     0.425  0.9517 -0.3064  0.0173
 
              Baa    -0.0658     4.762     1.699     1.588  0.2670  0.9636  0.0163
    31 O(17)  Bbb    -0.0609     4.409     1.573     1.471 -0.0207 -0.0112  0.9997
              Bcc     0.1267    -9.171    -3.272    -3.059  0.9635 -0.2673  0.0170
 
              Baa    -0.1616    11.693     4.172     3.901  0.7179 -0.6955  0.0300
    32 O(17)  Bbb    -0.1456    10.538     3.760     3.515  0.0618  0.1065  0.9924
              Bcc     0.3072   -22.231    -7.933    -7.415  0.6934  0.7105 -0.1195
 
              Baa    -0.0534   -28.483   -10.163    -9.501  0.4876 -0.2965  0.8212
    33 H(1)   Bbb    -0.0376   -20.086    -7.167    -6.700 -0.2343  0.8616  0.4502
              Bcc     0.0910    48.569    17.330    16.201  0.8410  0.4119 -0.3507
 
              Baa    -0.0549   -29.282   -10.449    -9.767 -0.3113  0.5005  0.8078
    34 H(1)   Bbb    -0.0380   -20.295    -7.242    -6.770  0.8565 -0.2205  0.4667
              Bcc     0.0929    49.577    17.690    16.537  0.4117  0.8372 -0.3600
 
              Baa    -0.1604    11.606     4.141     3.871  0.9750  0.2175  0.0446
    35 O(17)  Bbb    -0.1447    10.473     3.737     3.494 -0.0120 -0.1489  0.9888
              Bcc     0.3051   -22.079    -7.878    -7.365 -0.2217  0.9646  0.1425
 
              Baa    -0.0533   -28.464   -10.156    -9.494  0.5613 -0.0248  0.8272
    36 H(1)   Bbb    -0.0377   -20.092    -7.169    -6.702  0.6563  0.6223 -0.4266
              Bcc     0.0910    48.556    17.326    16.196 -0.5042  0.7824  0.3656
 
              Baa    -0.0544   -29.045   -10.364    -9.688 -0.5370 -0.2845  0.7942
    37 H(1)   Bbb    -0.0379   -20.234    -7.220    -6.749  0.8395 -0.2732  0.4697
              Bcc     0.0924    49.279    17.584    16.438  0.0833  0.9189  0.3856
 

 ---------------------------------------------------------------------------------

 No NMR shielding tensors so no spin-rotation constants.
 Leave Link  601 at Wed Feb  1 13:34:18 2023, MaxMem= 14763950080 cpu:              32.0 elap:              16.4
 (Enter /software/commercial/gaussian/g16/AVX2/g16/l9999.exe)
 Unable to Open any file for archive entry.
 1\1\GINC-NODE1054\FOpt\UM06L\Gen\C6H10Fe3N2O16(15)\SVICCHI\01-Feb-2023
 \0\\#p opt=(cartesian,maxcycle=500) gen um06l int=grid=ultrafine scf=(
 xqc,intrep,maxconventionalcycle=150) pop=(hirshfeld) nosymm\\FeFeFe-AO
 -2xH2O\\0,15\O,0.9018840482,2.4644214532,1.6296625166\O,-1.2839034154,
 1.9348566253,1.4881760502\C,-0.3031421352,2.5588346234,1.9568853488\H,
 -0.531049823,3.2808663147,2.760225066\O,2.3653501151,-1.7190336075,-1.
 331416294\O,2.9801544627,0.4467879586,-1.3001602579\C,3.0265681142,-0.
 7304770452,-1.7239395767\H,3.7400121365,-0.9213428508,-2.5468730789\O,
 -2.0843685743,-0.833418572,1.4352824414\O,2.9742866361,0.4045102288,1.
 5818372131\O,2.3569178286,-1.7615216241,1.5510075127\C,3.0358765325,-0
 .7893570839,1.955354932\H,3.7803400384,-1.0129465973,2.7391665876\O,-1
 .2435880228,1.9437410941,-1.3733548331\O,0.9162774461,2.567409836,-1.2
 492412286\C,-0.2504073756,2.6267866102,-1.7061773481\H,-0.4238467994,3
 .3726073693,-2.5024448649\Fe,-1.3588163548,0.4989544066,0.0553998442\O
 ,-2.0348128117,-0.7949089516,-1.3936816705\Fe,0.8910491505,-1.88712414
 88,0.1595957684\O,-0.5018727045,-2.4421924992,-1.3285781268\O,-0.49451
 39696,-2.4260382568,1.549417829\Fe,1.8034638533,1.3264020689,0.2080302
 614\O,0.4482895829,-0.025554585,0.0973017924\C,-1.5384885015,-1.884353
 7275,-1.7584616597\H,-2.082002381,-2.4171778084,-2.559487996\C,-1.5794
 109613,-1.89455559,1.8745699572\H,-2.1661159662,-2.4238585613,2.645730
 7994\N,-4.4692002064,0.1199570014,0.0125534509\N,-5.176147302,-0.75238
 00097,0.0031675428\O,-3.7377013751,1.0487066489,0.0214561824\O,3.32849
 14949,2.8617274438,-0.1249301511\H,3.9236429529,2.3681014176,-0.706981
 9971\H,2.816905461,3.4245061651,-0.7255050109\O,1.3904620657,-3.987117
 6081,-0.2242691776\H,2.1627894908,-3.8589843095,-0.7934080917\H,0.6689
 012694,-4.1854238292,-0.8396697327\\Version=ES64L-G16RevC.02\HF=-5339.
 7653229\S2=56.065915\S2-1=0.\S2A=56.000306\RMSD=4.245e-09\RMSF=7.023e-
 06\Dipole=0.4733814,-0.1379623,-1.1276098\Quadrupole=1.4242356,1.49635
 22,-2.9205878,-0.0083144,-6.4859198,1.6541968\PG=C01 [X(C6H10Fe3N2O16)
 ]\\@
 The archive entry for this job was punched.


 THE HURRIEDER I GO, THE BEHINDER I GET.
 Job cpu time:       2 days  7 hours 20 minutes  3.4 seconds.
 Elapsed time:       1 days  4 hours  0 minutes 17.8 seconds.
 File lengths (MBytes):  RWF=    876 Int=      0 D2E=      0 Chk=     83 Scr=      1
 Normal termination of Gaussian 16 at Wed Feb  1 13:34:19 2023.
