 Entering Gaussian System, Link 0=g16
 Input=FeFeFe-AO-2xH2O-freq.gjf
 Output=FeFeFe-AO-2xH2O-freq.log
 AtFile(1): /zfs/curium/svicchi/00-MOF/01-Gaussian/zw-basis-set/def2-TZVP/H.gbs
            !----------------------------------------------------------------------
            ! Basis Set Exchange
            ! Version v0.9
            ! https://www.basissetexchange.org
            !----------------------------------------------------------------------
            !   Basis set: def2-TZVP
            ! Description: def2-TZVP
            !        Role: orbital
            !     Version: 1  (Data from Turbomole 7.3)
            !----------------------------------------------------------------------
            H     0
            S    3   1.00
                 34.0613410              0.60251978D-02
                  5.1235746              0.45021094D-01
                  1.1646626              0.20189726
            S    1   1.00
                  0.32723041             1.0000000
            S    1   1.00
                  0.10307241             1.0000000
            P    1   1.00
                  0.8000000              1.0000000
 AtFile(1): /zfs/curium/svicchi/00-MOF/01-Gaussian/zw-basis-set/def2-TZVP/O.gbs
            !----------------------------------------------------------------------
            ! Basis Set Exchange
            ! Version v0.9
            ! https://www.basissetexchange.org
            !----------------------------------------------------------------------
            !   Basis set: def2-TZVP
            ! Description: def2-TZVP
            !        Role: orbital
            !     Version: 1  (Data from Turbomole 7.3)
            !----------------------------------------------------------------------
            O     0
            S    6   1.00
              27032.3826310              0.21726302465D-03
               4052.3871392              0.16838662199D-02
                922.32722710             0.87395616265D-02
                261.24070989             0.35239968808D-01
                 85.354641351            0.11153519115
                 31.035035245            0.25588953961
            S    2   1.00
                 12.260860728            0.39768730901
                  4.9987076005           0.24627849430
            S    1   1.00
                  1.1703108158           1.0000000
            S    1   1.00
                  0.46474740994          1.0000000
            S    1   1.00
                  0.18504536357          1.0000000
            P    4   1.00
                 63.274954801            0.60685103418D-02
                 14.627049379            0.41912575824D-01
                  4.4501223456           0.16153841088
                  1.5275799647           0.35706951311
            P    1   1.00
                  0.52935117943           .44794207502
            P    1   1.00
                  0.17478421270           .24446069663
            D    1   1.00
                  2.31400000             1.0000000
            D    1   1.00
                  0.64500000             1.0000000
            F    1   1.00
                  1.42800000             1.0000000
 AtFile(1): /zfs/curium/svicchi/00-MOF/01-Gaussian/zw-basis-set/def2-TZVP/C.gbs
            !----------------------------------------------------------------------
            ! Basis Set Exchange
            ! Version v0.9
            ! https://www.basissetexchange.org
            !----------------------------------------------------------------------
            !   Basis set: def2-TZVP
            ! Description: def2-TZVP
            !        Role: orbital
            !     Version: 1  (Data from Turbomole 7.3)
            !----------------------------------------------------------------------
            C     0
            S    6   1.00
              13575.3496820              0.22245814352D-03
               2035.2333680              0.17232738252D-02
                463.22562359             0.89255715314D-02
                131.20019598             0.35727984502D-01
                 42.853015891            0.11076259931
                 15.584185766            0.24295627626
            S    2   1.00
                  6.2067138508           0.41440263448
                  2.5764896527           0.23744968655
            S    1   1.00
                  0.57696339419          1.0000000
            S    1   1.00
                  0.22972831358          1.0000000
            S    1   1.00
                  0.95164440028D-01      1.0000000
            P    4   1.00
                 34.697232244            0.53333657805D-02
                  7.9582622826           0.35864109092D-01
                  2.3780826883           0.14215873329
                  0.81433208183          0.34270471845
            P    1   1.00
                  0.28887547253           .46445822433
            P    1   1.00
                  0.10056823671           .24955789874
            D    1   1.00
                  1.09700000             1.0000000
            D    1   1.00
                  0.31800000             1.0000000
            F    1   1.00
                  0.76100000             1.0000000
 AtFile(1): /zfs/curium/svicchi/00-MOF/01-Gaussian/zw-basis-set/def2-TZVP/Fe.gbs
            !----------------------------------------------------------------------
            ! Basis Set Exchange
            ! Version v0.9
            ! https://www.basissetexchange.org
            !----------------------------------------------------------------------
            !   Basis set: def2-TZVP
            ! Description: def2-TZVP
            !        Role: orbital
            !     Version: 1  (Data from Turbomole 7.3)
            !----------------------------------------------------------------------
            Fe     0
            S    8   1.00
             300784.8463700              0.22806273096D-03
              45088.9705570              0.17681788761D-02
              10262.5163170              0.91927083490D-02
               2905.2897293              0.37355495807D-01
                946.11487137             0.12151108426
                339.87832894             0.28818881468
                131.94425588             0.41126612677
                 52.111494077            0.21518583573
            S    4   1.00
                329.48839267            -0.24745216477D-01
                101.92332739            -0.11683089050
                 16.240462745            0.55293621136
                  6.8840675801           0.53601640182
            S    2   1.00
                 10.470693782           -0.22912708577
                  1.7360039648           0.71159319984
            S    1   1.00
                  0.72577288979          1.0000000
            S    1   1.00
                  0.11595528203          1.0000000
            S    1   1.00
                  0.41968227746D-01      1.0000000
            P    6   1.00
               1585.3959970              0.23793960179D-02
                375.38006499             0.19253154755D-01
                120.31816501             0.90021836536D-01
                 44.788749031            0.25798172356
                 17.829278584            0.41492649744
                  7.2247153786           0.24207474784
            P    3   1.00
                 28.143219756           -0.29041755152D-01
                  3.8743241412           0.55312260343
                  1.5410752281           0.96771136842
            P    1   1.00
                  0.58285615250          1.0000000
            P    1   1.00
                  0.1349150              1.0000000
            D    4   1.00
                 61.996675034            0.11971972255D-01
                 17.873732552            0.73210135410D-01
                  6.2744782934           0.23103094314
                  2.3552337175           0.39910706494
            D    1   1.00
                  0.85432239901           .41391589765
            D    1   1.00
                  0.27869254413           .21909269782
            D    1   1.00
                  0.0910000              1.0000000
            F    1   1.00
                  1.5980000              1.0000000
 AtFile(1): /zfs/curium/svicchi/00-MOF/01-Gaussian/zw-basis-set/def2-TZVP/N.gbs
            !----------------------------------------------------------------------
            ! Basis Set Exchange
            ! Version v0.9
            ! https://www.basissetexchange.org
            !----------------------------------------------------------------------
            !   Basis set: def2-TZVP
            ! Description: def2-TZVP
            !        Role: orbital
            !     Version: 1  (Data from Turbomole 7.3)
            !----------------------------------------------------------------------
            N     0
            S    6   1.00
              19730.8006470              0.21887984991D-03
               2957.8958745              0.16960708803D-02
                673.22133595             0.87954603538D-02
                190.68249494             0.35359382605D-01
                 62.295441898            0.11095789217
                 22.654161182            0.24982972552
            S    2   1.00
                  8.9791477428           0.40623896148
                  3.6863002370           0.24338217176
            S    1   1.00
                  0.84660076805          1.0000000
            S    1   1.00
                  0.33647133771          1.0000000
            S    1   1.00
                  0.13647653675          1.0000000
            P    4   1.00
                 49.200380510            0.55552416751D-02
                 11.346790537            0.38052379723D-01
                  3.4273972411           0.14953671029
                  1.1785525134           0.34949305230
            P    1   1.00
                  0.41642204972           .45843153697
            P    1   1.00
                  0.14260826011           .24428771672
            D    1   1.00
                  1.65400000             1.0000000
            D    1   1.00
                  0.46900000             1.0000000
            F    1   1.00
                  1.09300000             1.0000000
 Initial command:
 /software/commercial/gaussian/g16/AVX2/g16/l1.exe "/scratch1/svicchi/G09-84877.pbs02/Gau-3981306.inp" -scrdir="/scratch1/svicchi/G09-84877.pbs02/"
 Entering Link 1 = /software/commercial/gaussian/g16/AVX2/g16/l1.exe PID=   3981307.
  
 Copyright (c) 1988-2021, Gaussian, Inc.  All Rights Reserved.
  
 This is part of the Gaussian(R) 16 program.  It is based on
 the Gaussian(R) 09 system (copyright 2009, Gaussian, Inc.),
 the Gaussian(R) 03 system (copyright 2003, Gaussian, Inc.),
 the Gaussian(R) 98 system (copyright 1998, Gaussian, Inc.),
 the Gaussian(R) 94 system (copyright 1995, Gaussian, Inc.),
 the Gaussian 92(TM) system (copyright 1992, Gaussian, Inc.),
 the Gaussian 90(TM) system (copyright 1990, Gaussian, Inc.),
 the Gaussian 88(TM) system (copyright 1988, Gaussian, Inc.),
 the Gaussian 86(TM) system (copyright 1986, Carnegie Mellon
 University), and the Gaussian 82(TM) system (copyright 1983,
 Carnegie Mellon University). Gaussian is a federally registered
 trademark of Gaussian, Inc.
  
 This software contains proprietary and confidential information,
 including trade secrets, belonging to Gaussian, Inc.
  
 This software is provided under written license and may be
 used, copied, transmitted, or stored only in accord with that
 written license.
  
 The following legend is applicable only to US Government
 contracts under FAR:
  
                    RESTRICTED RIGHTS LEGEND
  
 Use, reproduction and disclosure by the US Government is
 subject to restrictions as set forth in subparagraphs (a)
 and (c) of the Commercial Computer Software - Restricted
 Rights clause in FAR 52.227-19.
  
 Gaussian, Inc.
 340 Quinnipiac St., Bldg. 40, Wallingford CT 06492
  
  
 ---------------------------------------------------------------
 Warning -- This program may not be used in any manner that
 competes with the business of Gaussian, Inc. or will provide
 assistance to any competitor of Gaussian, Inc.  The licensee
 of this program is prohibited from giving any competitor of
 Gaussian, Inc. access to this program.  By using this program,
 the user acknowledges that Gaussian, Inc. is engaged in the
 business of creating and licensing software in the field of
 computational chemistry and represents and warrants to the
 licensee that it is not a competitor of Gaussian, Inc. and that
 it will not use this program in any manner prohibited above.
 ---------------------------------------------------------------
  

 Cite this work as:
 Gaussian 16, Revision C.02,
 M. J. Frisch, G. W. Trucks, H. B. Schlegel, G. E. Scuseria, 
 M. A. Robb, J. R. Cheeseman, G. Scalmani, V. Barone, 
 G. A. Petersson, H. Nakatsuji, X. Li, M. Caricato, A. V. Marenich, 
 J. Bloino, B. G. Janesko, R. Gomperts, B. Mennucci, H. P. Hratchian, 
 J. V. Ortiz, A. F. Izmaylov, J. L. Sonnenberg, D. Williams-Young, 
 F. Ding, F. Lipparini, F. Egidi, J. Goings, B. Peng, A. Petrone, 
 T. Henderson, D. Ranasinghe, V. G. Zakrzewski, J. Gao, N. Rega, 
 G. Zheng, W. Liang, M. Hada, M. Ehara, K. Toyota, R. Fukuda, 
 J. Hasegawa, M. Ishida, T. Nakajima, Y. Honda, O. Kitao, H. Nakai, 
 T. Vreven, K. Throssell, J. A. Montgomery, Jr., J. E. Peralta, 
 F. Ogliaro, M. J. Bearpark, J. J. Heyd, E. N. Brothers, K. N. Kudin, 
 V. N. Staroverov, T. A. Keith, R. Kobayashi, J. Normand, 
 K. Raghavachari, A. P. Rendell, J. C. Burant, S. S. Iyengar, 
 J. Tomasi, M. Cossi, J. M. Millam, M. Klene, C. Adamo, R. Cammi, 
 J. W. Ochterski, R. L. Martin, K. Morokuma, O. Farkas, 
 J. B. Foresman, and D. J. Fox, Gaussian, Inc., Wallingford CT, 2019.
 
 ******************************************
 Gaussian 16:  ES64L-G16RevC.02  7-Dec-2021
                 1-Feb-2023 
 ******************************************
 %NProcShared=2
 Will use up to    2 processors via shared memory.
 %mem=110gb
 %chk=/scratch1/svicchi/G09-84877.pbs02/02-freq/FeFeFe-AO-2xH2O-freq.chk
 ----------------------------------------------------------------------
 #p freq=raman scale=0.967 guess=read geom=allcheck gen um06l int=grid=
 ultrafine scf=(xqc,intrep,maxconventionalcycle=150) pop=(hirshfeld) no
 symm
 ----------------------------------------------------------------------
 1/10=4,29=7,30=1,38=1,114=967000/1,3;
 2/12=2,15=1,40=1/2;
 3/5=7,11=2,14=-4,25=1,30=1,71=2,74=-53,75=-5,116=2,140=1/1,2,3;
 4/5=1/1;
 5/5=2,8=3,13=1,17=20,38=6,85=150,98=1/2,8;
 8/6=4,10=90,11=11/1;
 10/13=10,15=4,31=1/2;
 11/6=3,8=1,9=11,15=111,16=1,31=1/1,2,10;
 10/6=1,31=1/2;
 6/7=2,8=2,9=2,10=2,28=1,79=1/1;
 7/8=1,10=1,25=1,30=1/1,2,3,16;
 1/10=4,30=1/3;
 99//99;
 Leave Link    1 at Wed Feb  1 16:16:52 2023, MaxMem= 14763950080 cpu:               0.0 elap:               0.1
 (Enter /software/commercial/gaussian/g16/AVX2/g16/l101.exe)
 Structure from the checkpoint file:  "/scratch1/svicchi/G09-84877.pbs02/02-freq/FeFeFe-AO-2xH2O-freq.chk"
 ---------------
 FeFeFe-AO-2xH2O
 ---------------
 Charge =  0 Multiplicity =15
 No Z-Matrix found in chk file; cartesian coordinates used.
  O                                                 0.901884048166      2.464421453174      1.629662516556
  O                                                -1.283903415441      1.934856625252      1.488176050193
  C                                                -0.303142135205      2.558834623369      1.956885348753
  H                                                -0.531049822964      3.280866314687      2.760225065997
  O                                                 2.365350115085     -1.719033607499     -1.331416293956
  O                                                 2.980154462689      0.446787958626     -1.300160257919
  C                                                 3.026568114219     -0.730477045154     -1.723939576737
  H                                                 3.740012136496     -0.921342850753     -2.546873078946
  O                                                -2.084368574255     -0.833418571977      1.435282441437
  O                                                 2.974286636148      0.404510228801      1.581837213082
  O                                                 2.356917828609     -1.761521624140      1.551007512739
  C                                                 3.035876532528     -0.789357083873      1.955354931967
  H                                                 3.780340038398     -1.012946597295      2.739166587618
  O                                                -1.243588022817      1.943741094093     -1.373354833149
  O                                                 0.916277446145      2.567409835978     -1.249241228634
  C                                                -0.250407375640      2.626786610241     -1.706177348079
  H                                                -0.423846799393      3.372607369293     -2.502444864916
  Fe                                               -1.358816354849      0.498954406588      0.055399844231
  O                                                -2.034812811718     -0.794908951608     -1.393681670543
  Fe                                                0.891049150533     -1.887124148780      0.159595768448
  O                                                -0.501872704543     -2.442192499208     -1.328578126846
  O                                                -0.494513969609     -2.426038256844      1.549417829005
  Fe                                                1.803463853312      1.326402068876      0.208030261439
  O                                                 0.448289582887     -0.025554585030      0.097301792437
  C                                                -1.538488501519     -1.884353727502     -1.758461659709
  H                                                -2.082002381013     -2.417177808372     -2.559487996025
  C                                                -1.579410961287     -1.894555590040      1.874569957236
  H                                                -2.166115966203     -2.423858561281      2.645730799389
  N                                                -4.469200206446      0.119957001427      0.012553450937
  N                                                -5.176147302016     -0.752380009708      0.003167542844
  O                                                -3.737701375083      1.048706648940      0.021456182361
  O                                                 3.328491494903      2.861727443800     -0.124930151147
  H                                                 3.923642952925      2.368101417599     -0.706981997120
  H                                                 2.816905461025      3.424506165060     -0.725505010916
  O                                                 1.390462065734     -3.987117608081     -0.224269177634
  H                                                 2.162789490846     -3.858984309452     -0.793408091718
  H                                                 0.668901269351     -4.185423829205     -0.839669732674
 Recover connectivity data from disk.
 ITRead=  0  0  0  0  0  0  0  0  0  0  0  0  0  0  0  0  0  0  0  0
 ITRead=  0  0  0  0  0  0  0  0  0  0  0  0  0  0  0  0  0
 MicOpt= -1 -1 -1 -1 -1 -1 -1 -1 -1 -1 -1 -1 -1 -1 -1 -1 -1 -1 -1 -1
 MicOpt= -1 -1 -1 -1 -1 -1 -1 -1 -1 -1 -1 -1 -1 -1 -1 -1 -1
 NAtoms=     37 NQM=       37 NQMF=       0 NMMI=      0 NMMIF=      0
                NMic=       0 NMicF=      0.
                    Isotopes and Nuclear Properties:
 (Nuclear quadrupole moments (NQMom) in fm**2, nuclear magnetic moments (NMagM)
  in nuclear magnetons)

  Atom         1           2           3           4           5           6           7           8           9          10
 IAtWgt=          16          16          12           1          16          16          12           1          16          16
 AtmWgt=  15.9949146  15.9949146  12.0000000   1.0078250  15.9949146  15.9949146  12.0000000   1.0078250  15.9949146  15.9949146
 NucSpn=           0           0           0           1           0           0           0           1           0           0
 AtZEff=   5.6000000   5.6000000   3.6000000   1.0000000   5.6000000   5.6000000   3.6000000   1.0000000   5.6000000   5.6000000
 NQMom=    0.0000000   0.0000000   0.0000000   0.0000000   0.0000000   0.0000000   0.0000000   0.0000000   0.0000000   0.0000000
 NMagM=    0.0000000   0.0000000   0.0000000   2.7928460   0.0000000   0.0000000   0.0000000   2.7928460   0.0000000   0.0000000
 AtZNuc=   8.0000000   8.0000000   6.0000000   1.0000000   8.0000000   8.0000000   6.0000000   1.0000000   8.0000000   8.0000000

  Atom        11          12          13          14          15          16          17          18          19          20
 IAtWgt=          16          12           1          16          16          12           1          56          16          56
 AtmWgt=  15.9949146  12.0000000   1.0078250  15.9949146  15.9949146  12.0000000   1.0078250  55.9349393  15.9949146  55.9349393
 NucSpn=           0           0           1           0           0           0           1           0           0           0
 AtZEff=   5.6000000   3.6000000   1.0000000   5.6000000   5.6000000   3.6000000   1.0000000  25.2200000   5.6000000  25.2200000
 NQMom=    0.0000000   0.0000000   0.0000000   0.0000000   0.0000000   0.0000000   0.0000000   0.0000000   0.0000000   0.0000000
 NMagM=    0.0000000   0.0000000   2.7928460   0.0000000   0.0000000   0.0000000   2.7928460   0.0000000   0.0000000   0.0000000
 AtZNuc=   8.0000000   6.0000000   1.0000000   8.0000000   8.0000000   6.0000000   1.0000000  26.0000000   8.0000000  26.0000000

  Atom        21          22          23          24          25          26          27          28          29          30
 IAtWgt=          16          16          56          16          12           1          12           1          14          14
 AtmWgt=  15.9949146  15.9949146  55.9349393  15.9949146  12.0000000   1.0078250  12.0000000   1.0078250  14.0030740  14.0030740
 NucSpn=           0           0           0           0           0           1           0           1           2           2
 AtZEff=   5.6000000   5.6000000  25.2200000   5.6000000   3.6000000   1.0000000   3.6000000   1.0000000   4.5500000   4.5500000
 NQMom=    0.0000000   0.0000000   0.0000000   0.0000000   0.0000000   0.0000000   0.0000000   0.0000000   2.0440000   2.0440000
 NMagM=    0.0000000   0.0000000   0.0000000   0.0000000   0.0000000   2.7928460   0.0000000   2.7928460   0.4037610   0.4037610
 AtZNuc=   8.0000000   8.0000000  26.0000000   8.0000000   6.0000000   1.0000000   6.0000000   1.0000000   7.0000000   7.0000000

  Atom        31          32          33          34          35          36          37
 IAtWgt=          16          16           1           1          16           1           1
 AtmWgt=  15.9949146  15.9949146   1.0078250   1.0078250  15.9949146   1.0078250   1.0078250
 NucSpn=           0           0           1           1           0           1           1
 AtZEff=   5.6000000   5.6000000   1.0000000   1.0000000   5.6000000   1.0000000   1.0000000
 NQMom=    0.0000000   0.0000000   0.0000000   0.0000000   0.0000000   0.0000000   0.0000000
 NMagM=    0.0000000   0.0000000   2.7928460   2.7928460   0.0000000   2.7928460   2.7928460
 AtZNuc=   8.0000000   8.0000000   1.0000000   1.0000000   8.0000000   1.0000000   1.0000000
 Leave Link  101 at Wed Feb  1 16:16:52 2023, MaxMem= 14763950080 cpu:               0.2 elap:               0.2
 (Enter /software/commercial/gaussian/g16/AVX2/g16/l103.exe)

 GradGradGradGradGradGradGradGradGradGradGradGradGradGradGradGradGradGrad
 Berny optimization.
 Initialization pass.
 Trust Radius=3.00D-01 FncErr=1.00D-07 GrdErr=1.00D-07 EigMax=2.50D+02 EigMin=1.00D-04
 Number of steps in this run=      2 maximum allowed number of steps=      2.
 GradGradGradGradGradGradGradGradGradGradGradGradGradGradGradGradGradGrad

 Leave Link  103 at Wed Feb  1 16:16:52 2023, MaxMem= 14763950080 cpu:               0.1 elap:               0.1
 (Enter /software/commercial/gaussian/g16/AVX2/g16/l202.exe)
                          Input orientation:                          
 ---------------------------------------------------------------------
 Center     Atomic      Atomic             Coordinates (Angstroms)
 Number     Number       Type             X           Y           Z
 ---------------------------------------------------------------------
      1          8           0        0.901884    2.464421    1.629663
      2          8           0       -1.283903    1.934857    1.488176
      3          6           0       -0.303142    2.558835    1.956885
      4          1           0       -0.531050    3.280866    2.760225
      5          8           0        2.365350   -1.719034   -1.331416
      6          8           0        2.980154    0.446788   -1.300160
      7          6           0        3.026568   -0.730477   -1.723940
      8          1           0        3.740012   -0.921343   -2.546873
      9          8           0       -2.084369   -0.833419    1.435282
     10          8           0        2.974287    0.404510    1.581837
     11          8           0        2.356918   -1.761522    1.551008
     12          6           0        3.035877   -0.789357    1.955355
     13          1           0        3.780340   -1.012947    2.739167
     14          8           0       -1.243588    1.943741   -1.373355
     15          8           0        0.916277    2.567410   -1.249241
     16          6           0       -0.250407    2.626787   -1.706177
     17          1           0       -0.423847    3.372607   -2.502445
     18         26           0       -1.358816    0.498954    0.055400
     19          8           0       -2.034813   -0.794909   -1.393682
     20         26           0        0.891049   -1.887124    0.159596
     21          8           0       -0.501873   -2.442192   -1.328578
     22          8           0       -0.494514   -2.426038    1.549418
     23         26           0        1.803464    1.326402    0.208030
     24          8           0        0.448290   -0.025555    0.097302
     25          6           0       -1.538489   -1.884354   -1.758462
     26          1           0       -2.082002   -2.417178   -2.559488
     27          6           0       -1.579411   -1.894556    1.874570
     28          1           0       -2.166116   -2.423859    2.645731
     29          7           0       -4.469200    0.119957    0.012553
     30          7           0       -5.176147   -0.752380    0.003168
     31          8           0       -3.737701    1.048707    0.021456
     32          8           0        3.328491    2.861727   -0.124930
     33          1           0        3.923643    2.368101   -0.706982
     34          1           0        2.816905    3.424506   -0.725505
     35          8           0        1.390462   -3.987118   -0.224269
     36          1           0        2.162789   -3.858984   -0.793408
     37          1           0        0.668901   -4.185424   -0.839670
 ---------------------------------------------------------------------
                    Distance matrix (angstroms):
                    1          2          3          4          5
     1  O    0.000000
     2  O    2.253469   0.000000
     3  C    1.252229   1.253367   0.000000
     4  H    1.999513   1.999160   1.103914   0.000000
     5  O    5.330199   5.883712   6.019463   7.080230   0.000000
     6  O    4.119941   5.307670   5.084203   6.070196   2.251609
     7  C    5.095911   6.000155   5.954411   6.989653   1.252409
     8  H    6.079623   7.048349   6.981588   8.004113   2.000835
     9  O    4.453228   2.882168   3.866810   4.592996   5.314032
    10  O    2.922392   4.525805   3.939964   4.685019   3.656130
    11  O    4.470112   5.188713   5.089807   5.935338   2.882749
    12  C    3.904750   5.128362   4.728576   5.471517   3.480915
    13  H    4.648505   5.991751   5.481278   6.084846   4.366967
    14  O    3.727234   2.861829   3.514723   4.402510   5.142189
    15  O    2.880781   3.568525   3.430205   4.321990   4.525501
    16  C    3.532983   3.427940   3.664072   4.522757   5.086137
    17  H    4.433585   4.328034   4.534581   5.264561   5.922477
    18  Fe   3.384100   2.029846   2.995530   3.967406   4.551060
    19  O    5.328042   4.039875   5.047037   6.010673   4.496590
    20  Fe   4.593165   4.593809   4.941952   5.957664   2.103553
    21  O    5.898863   5.263481   5.986989   7.033674   2.957014
    22  O    5.086547   4.432188   5.005158   5.834051   4.120423
    23  Fe   2.031987   3.397179   3.002528   3.972856   3.458365
    24  O    2.958692   2.962809   3.271356   4.356912   2.929885
    25  C    6.028818   5.019147   5.922145   6.936351   3.930605
    26  H    7.091020   5.996728   6.951451   7.948113   4.666316
    27  C    5.021701   3.860184   4.633392   5.354292   5.086285
    28  H    5.860060   4.595283   5.363992   5.935523   6.070310
    29  N    6.079482   3.951890   5.204286   5.748920   7.204111
    30  N    7.066524   4.957424   6.207039   6.741318   7.719438
    31  O    5.110414   2.992934   4.221679   4.771374   6.836511
    32  O    3.020740   4.973468   4.196959   4.836926   4.833903
    33  H    3.821022   5.667888   4.999828   5.718300   4.418469
    34  H    3.183690   4.892451   4.204676   4.835261   5.198753
    35  O    6.730388   6.719708   7.104592   8.088449   2.705621
    36  H    6.888150   7.117156   7.404953   8.417989   2.215823
    37  H    7.097346   6.833019   7.365501   8.375238   3.033617
                    6          7          8          9         10
     6  O    0.000000
     7  C    1.252077   0.000000
     8  H    2.000864   1.105736   0.000000
     9  O    5.896691   6.009406   7.056111   0.000000
    10  O    2.882314   3.495581   4.403461   5.209985   0.000000
    11  O    3.659810   3.498108   4.405846   4.538699   2.252507
    12  C    3.482749   3.679777   4.558869   5.146778   1.252449
    13  H    4.368900   4.535116   5.286987   6.010587   1.999579
    14  O    4.481766   5.050603   5.867037   4.038313   5.375208
    15  O    2.959598   3.943948   4.672122   5.270311   4.114431
    16  C    3.918389   4.691493   5.405501   5.020478   5.113531
    17  H    4.646841   5.417263   5.981447   5.996139   6.085908
    18  Fe   4.546090   4.889698   5.898061   2.050785   4.595075
    19  O    5.167248   5.072553   5.890199   2.829660   5.948394
    20  Fe   3.455777   3.073431   4.046517   3.404524   3.407967
    21  O    4.524547   3.941595   4.668063   3.568105   5.353309
    22  O    5.333530   5.097825   6.080701   2.253243   4.477235
    23  Fe   2.105460   3.075588   4.048712   4.613699   2.026834
    24  O    2.930247   3.234402   4.316194   2.976104   2.961328
    25  C    5.105134   4.708754   5.423242   3.406237   6.063137
    26  H    5.950936   5.444318   6.011118   4.297265   7.118887
    27  C    6.029132   5.959815   6.985167   1.254579   5.109556
    28  H    7.091880   6.994679   8.006437   2.000342   5.962825
    29  N    7.571190   7.741136   8.661763   2.936070   7.612432
    30  N    8.346372   8.382596   9.275190   3.408316   8.382134
    31  O    6.873032   7.208831   8.148227   2.876597   6.921023
    32  O    2.708217   3.943593   4.510740   6.737019   3.012712
    33  H    2.221143   3.382327   3.773508   7.136892   3.161592
    34  H    3.037052   4.278401   4.801657   6.842617   3.803810
    35  O    4.831582   3.941010   4.507089   4.977387   5.005688
    36  H    4.411866   3.376323   3.767228   5.670931   4.947495
    37  H    5.197242   4.275182   4.795883   4.898147   5.678555
                   11         12         13         14         15
    11  O    0.000000
    12  C    1.252831   0.000000
    13  H    1.999554   1.103893   0.000000
    14  O    5.936709   6.071569   7.134051   0.000000
    15  O    5.353175   5.101962   6.076940   2.251530   0.000000
    16  C    6.055134   5.989701   7.018238   1.250492   1.254380
    17  H    7.107912   7.011677   8.023887   1.997118   2.003695
    18  Fe   4.599269   4.958115   5.991609   2.035197   3.340157
    19  O    5.375205   6.076839   7.137505   2.850729   4.476046
    20  Fe   2.024987   3.005017   3.970689   4.645658   4.672080
    21  O    4.114366   5.102132   6.076729   4.448433   5.207068
    22  O    2.927840   3.912438   4.656899   5.310243   5.895536
    23  Fe   3.412502   3.008059   3.973316   3.488038   2.109701
    24  O    2.961369   3.275876   4.365427   2.983858   2.958996
    25  C    5.112912   5.993018   7.019825   3.858702   5.109147
    26  H    6.085234   7.016145   8.025875   4.596462   5.962595
    27  C    3.951845   4.746459   5.500154   5.039277   5.991310
    28  H    4.700526   5.496266   6.112262   6.006666   7.041642
    29  N    7.245874   7.805607   8.762009   3.956198   6.048597
    30  N    7.756368   8.440956   9.368685   4.962752   7.050331
    31  O    6.883407   7.280096   8.255744   2.994526   5.057732
    32  O    5.012699   4.212319   4.839454   4.827543   2.677588
    33  H    4.960537   4.224418   4.829903   5.227276   3.062355
    34  H    5.682339   4.999160   5.711667   4.370353   2.149721
    35  O    3.006480   4.205214   4.831062   6.590425   6.651109
    36  H    3.151717   4.211958   4.816169   6.753619   6.562021
    37  H    3.800005   4.994798   5.705588   6.442755   6.769764
                   16         17         18         19         20
    16  C    0.000000
    17  H    1.104704   0.000000
    18  Fe   2.976474   3.959118   0.000000
    19  O    3.871661   4.603559   2.056913   0.000000
    20  Fe   5.015917   6.039883   3.281177   3.488019   0.000000
    21  O    5.089240   5.932617   3.361561   2.251152   2.112580
    22  O    6.015773   7.074382   3.396276   3.700667   2.035146
    23  Fe   3.094120   4.061348   3.272305   4.668812   3.340898
    24  O    3.282625   4.366556   1.882152   2.996788   1.914512
    25  C    4.691724   5.425088   3.000422   1.251516   3.095417
    26  H    5.433641   6.022819   3.983022   1.998271   4.063669
    27  C    5.918660   6.945257   3.014454   3.478230   3.007385
    28  H    6.936718   7.945957   3.988030   4.357473   3.976834
    29  N    5.199658   5.768001   3.133682   2.956471   5.725580
    30  N    6.213175   6.773328   4.017534   3.438165   6.174381
    31  O    4.199556   4.769929   2.441818   2.881209   5.483021
    32  O    3.919701   4.471422   5.252244   6.614057   5.345435
    33  H    4.299768   4.809718   5.655025   6.780810   5.296652
    34  H    3.317602   3.696307   5.158034   6.464448   5.718893
    35  O    6.973681   7.915008   5.268927   4.825995   2.192427
    36  H    6.980107   7.868126   5.666905   5.231515   2.532543
    37  H    6.928360   7.815546   5.182296   4.371795   2.515962
                   21         22         23         24         25
    21  O    0.000000
    22  O    2.878051   0.000000
    23  Fe   4.677397   4.600090   0.000000
    24  O    2.962445   2.959703   1.917432   0.000000
    25  C    1.253218   3.510751   5.034351   3.293369   0.000000
    26  H    2.003141   4.404918   6.063860   4.379586   1.104967
    27  C    3.423617   1.251079   4.959412   3.280765   3.633276
    28  H    4.308732   1.999040   5.980335   4.368234   4.481283
    29  N    4.909474   4.964089   6.390621   4.920372   3.967723
    30  N    5.145664   5.206699   7.285484   5.671986   4.197292
    31  O    4.947682   4.992673   5.551255   4.322304   4.075229
    32  O    6.652220   6.736414   2.189474   4.084281   6.991510
    33  H    6.565859   6.898929   2.533287   4.295875   7.001704
    34  H    6.767284   7.097157   2.510098   4.265005   6.944095
    35  O    2.680900   3.022593   5.347050   4.084737   3.918433
    36  H    3.064985   3.821443   5.293413   4.292791   4.304643
    37  H    2.156061   3.186960   5.724084   4.269789   3.318384
                   26         27         28         29         30
    26  H    0.000000
    27  C    4.492950   0.000000
    28  H    5.205903   1.104117   0.000000
    29  N    4.330261   3.984501   4.325369   0.000000
    30  N    4.348849   4.212271   4.340192   1.122869   0.000000
    31  O    4.627631   4.093292   4.627678   1.182263   2.305076
    32  O    7.941496   7.120936   8.112009   8.266813   9.241594
    33  H    7.899269   7.424167   8.443265   8.718469   9.646134
    34  H    7.841432   7.374307   8.390417   8.034433   9.047996
    35  O    4.469448   4.195723   4.830106   7.159594   7.323634
    36  H    4.818309   4.998115   5.711977   7.775914   8.009090
    37  H    3.694853   4.203580   4.825811   6.757416   6.830868
                   31         32         33         34         35
    31  O    0.000000
    32  O    7.296544   0.000000
    33  H    7.808177   0.967810   0.000000
    34  H    7.011793   0.969087   1.530099   0.000000
    35  O    7.191521   7.118462   6.858486   7.564268   0.000000
    36  H    7.717851   6.853736   6.471837   7.313119   0.967898
    37  H    6.896072   7.566149   7.318445   7.908096   0.968862
                   36         37
    36  H    0.000000
    37  H    1.529838   0.000000
 Symmetry turned off by external request.
 Stoichiometry    C6H10Fe3N2O16(15)
 Framework group  C1[X(C6H10Fe3N2O16)]
 Deg. of freedom   105
 Full point group                 C1      NOp   1
 Rotational constants (GHZ):           0.2118469           0.1616475           0.1219801
 Leave Link  202 at Wed Feb  1 16:16:53 2023, MaxMem= 14763950080 cpu:               0.1 elap:               0.1
 (Enter /software/commercial/gaussian/g16/AVX2/g16/l301.exe)
 General basis read from cards:  (5D, 7F)
 Centers:       4      8     13     17     26     28     33     34     36     37
 S 3 1.00
     Exponent=  3.4061341000D+01 Coefficients=  6.0251978000D-03
     Exponent=  5.1235746000D+00 Coefficients=  4.5021094000D-02
     Exponent=  1.1646626000D+00 Coefficients=  2.0189726000D-01
 S 1 1.00
     Exponent=  3.2723041000D-01 Coefficients=  1.0000000000D+00
 S 1 1.00
     Exponent=  1.0307241000D-01 Coefficients=  1.0000000000D+00
 P 1 1.00
     Exponent=  8.0000000000D-01 Coefficients=  1.0000000000D+00
 ****
 Centers:       1      2      5      6      9     10     11     14     15     19
 Centers:      21     22     24     31     32     35
 S 6 1.00
     Exponent=  2.7032382631D+04 Coefficients=  2.1726302465D-04
     Exponent=  4.0523871392D+03 Coefficients=  1.6838662199D-03
     Exponent=  9.2232722710D+02 Coefficients=  8.7395616265D-03
     Exponent=  2.6124070989D+02 Coefficients=  3.5239968808D-02
     Exponent=  8.5354641351D+01 Coefficients=  1.1153519115D-01
     Exponent=  3.1035035245D+01 Coefficients=  2.5588953961D-01
 S 2 1.00
     Exponent=  1.2260860728D+01 Coefficients=  3.9768730901D-01
     Exponent=  4.9987076005D+00 Coefficients=  2.4627849430D-01
 S 1 1.00
     Exponent=  1.1703108158D+00 Coefficients=  1.0000000000D+00
 S 1 1.00
     Exponent=  4.6474740994D-01 Coefficients=  1.0000000000D+00
 S 1 1.00
     Exponent=  1.8504536357D-01 Coefficients=  1.0000000000D+00
 P 4 1.00
     Exponent=  6.3274954801D+01 Coefficients=  6.0685103418D-03
     Exponent=  1.4627049379D+01 Coefficients=  4.1912575824D-02
     Exponent=  4.4501223456D+00 Coefficients=  1.6153841088D-01
     Exponent=  1.5275799647D+00 Coefficients=  3.5706951311D-01
 P 1 1.00
     Exponent=  5.2935117943D-01 Coefficients=  4.4794207502D-01
 P 1 1.00
     Exponent=  1.7478421270D-01 Coefficients=  2.4446069663D-01
 D 1 1.00
     Exponent=  2.3140000000D+00 Coefficients=  1.0000000000D+00
 D 1 1.00
     Exponent=  6.4500000000D-01 Coefficients=  1.0000000000D+00
 F 1 1.00
     Exponent=  1.4280000000D+00 Coefficients=  1.0000000000D+00
 ****
 Centers:       3      7     12     16     25     27
 S 6 1.00
     Exponent=  1.3575349682D+04 Coefficients=  2.2245814352D-04
     Exponent=  2.0352333680D+03 Coefficients=  1.7232738252D-03
     Exponent=  4.6322562359D+02 Coefficients=  8.9255715314D-03
     Exponent=  1.3120019598D+02 Coefficients=  3.5727984502D-02
     Exponent=  4.2853015891D+01 Coefficients=  1.1076259931D-01
     Exponent=  1.5584185766D+01 Coefficients=  2.4295627626D-01
 S 2 1.00
     Exponent=  6.2067138508D+00 Coefficients=  4.1440263448D-01
     Exponent=  2.5764896527D+00 Coefficients=  2.3744968655D-01
 S 1 1.00
     Exponent=  5.7696339419D-01 Coefficients=  1.0000000000D+00
 S 1 1.00
     Exponent=  2.2972831358D-01 Coefficients=  1.0000000000D+00
 S 1 1.00
     Exponent=  9.5164440028D-02 Coefficients=  1.0000000000D+00
 P 4 1.00
     Exponent=  3.4697232244D+01 Coefficients=  5.3333657805D-03
     Exponent=  7.9582622826D+00 Coefficients=  3.5864109092D-02
     Exponent=  2.3780826883D+00 Coefficients=  1.4215873329D-01
     Exponent=  8.1433208183D-01 Coefficients=  3.4270471845D-01
 P 1 1.00
     Exponent=  2.8887547253D-01 Coefficients=  4.6445822433D-01
 P 1 1.00
     Exponent=  1.0056823671D-01 Coefficients=  2.4955789874D-01
 D 1 1.00
     Exponent=  1.0970000000D+00 Coefficients=  1.0000000000D+00
 D 1 1.00
     Exponent=  3.1800000000D-01 Coefficients=  1.0000000000D+00
 F 1 1.00
     Exponent=  7.6100000000D-01 Coefficients=  1.0000000000D+00
 ****
 Centers:      18     20     23
 S 8 1.00
     Exponent=  3.0078484637D+05 Coefficients=  2.2806273096D-04
     Exponent=  4.5088970557D+04 Coefficients=  1.7681788761D-03
     Exponent=  1.0262516317D+04 Coefficients=  9.1927083490D-03
     Exponent=  2.9052897293D+03 Coefficients=  3.7355495807D-02
     Exponent=  9.4611487137D+02 Coefficients=  1.2151108426D-01
     Exponent=  3.3987832894D+02 Coefficients=  2.8818881468D-01
     Exponent=  1.3194425588D+02 Coefficients=  4.1126612677D-01
     Exponent=  5.2111494077D+01 Coefficients=  2.1518583573D-01
 S 4 1.00
     Exponent=  3.2948839267D+02 Coefficients= -2.4745216477D-02
     Exponent=  1.0192332739D+02 Coefficients= -1.1683089050D-01
     Exponent=  1.6240462745D+01 Coefficients=  5.5293621136D-01
     Exponent=  6.8840675801D+00 Coefficients=  5.3601640182D-01
 S 2 1.00
     Exponent=  1.0470693782D+01 Coefficients= -2.2912708577D-01
     Exponent=  1.7360039648D+00 Coefficients=  7.1159319984D-01
 S 1 1.00
     Exponent=  7.2577288979D-01 Coefficients=  1.0000000000D+00
 S 1 1.00
     Exponent=  1.1595528203D-01 Coefficients=  1.0000000000D+00
 S 1 1.00
     Exponent=  4.1968227746D-02 Coefficients=  1.0000000000D+00
 P 6 1.00
     Exponent=  1.5853959970D+03 Coefficients=  2.3793960179D-03
     Exponent=  3.7538006499D+02 Coefficients=  1.9253154755D-02
     Exponent=  1.2031816501D+02 Coefficients=  9.0021836536D-02
     Exponent=  4.4788749031D+01 Coefficients=  2.5798172356D-01
     Exponent=  1.7829278584D+01 Coefficients=  4.1492649744D-01
     Exponent=  7.2247153786D+00 Coefficients=  2.4207474784D-01
 P 3 1.00
     Exponent=  2.8143219756D+01 Coefficients= -2.9041755152D-02
     Exponent=  3.8743241412D+00 Coefficients=  5.5312260343D-01
     Exponent=  1.5410752281D+00 Coefficients=  9.6771136842D-01
 P 1 1.00
     Exponent=  5.8285615250D-01 Coefficients=  1.0000000000D+00
 P 1 1.00
     Exponent=  1.3491500000D-01 Coefficients=  1.0000000000D+00
 D 4 1.00
     Exponent=  6.1996675034D+01 Coefficients=  1.1971972255D-02
     Exponent=  1.7873732552D+01 Coefficients=  7.3210135410D-02
     Exponent=  6.2744782934D+00 Coefficients=  2.3103094314D-01
     Exponent=  2.3552337175D+00 Coefficients=  3.9910706494D-01
 D 1 1.00
     Exponent=  8.5432239901D-01 Coefficients=  4.1391589765D-01
 D 1 1.00
     Exponent=  2.7869254413D-01 Coefficients=  2.1909269782D-01
 D 1 1.00
     Exponent=  9.1000000000D-02 Coefficients=  1.0000000000D+00
 F 1 1.00
     Exponent=  1.5980000000D+00 Coefficients=  1.0000000000D+00
 ****
 Centers:      29     30
 S 6 1.00
     Exponent=  1.9730800647D+04 Coefficients=  2.1887984991D-04
     Exponent=  2.9578958745D+03 Coefficients=  1.6960708803D-03
     Exponent=  6.7322133595D+02 Coefficients=  8.7954603538D-03
     Exponent=  1.9068249494D+02 Coefficients=  3.5359382605D-02
     Exponent=  6.2295441898D+01 Coefficients=  1.1095789217D-01
     Exponent=  2.2654161182D+01 Coefficients=  2.4982972552D-01
 S 2 1.00
     Exponent=  8.9791477428D+00 Coefficients=  4.0623896148D-01
     Exponent=  3.6863002370D+00 Coefficients=  2.4338217176D-01
 S 1 1.00
     Exponent=  8.4660076805D-01 Coefficients=  1.0000000000D+00
 S 1 1.00
     Exponent=  3.3647133771D-01 Coefficients=  1.0000000000D+00
 S 1 1.00
     Exponent=  1.3647653675D-01 Coefficients=  1.0000000000D+00
 P 4 1.00
     Exponent=  4.9200380510D+01 Coefficients=  5.5552416751D-03
     Exponent=  1.1346790537D+01 Coefficients=  3.8052379723D-02
     Exponent=  3.4273972411D+00 Coefficients=  1.4953671029D-01
     Exponent=  1.1785525134D+00 Coefficients=  3.4949305230D-01
 P 1 1.00
     Exponent=  4.1642204972D-01 Coefficients=  4.5843153697D-01
 P 1 1.00
     Exponent=  1.4260826011D-01 Coefficients=  2.4428771672D-01
 D 1 1.00
     Exponent=  1.6540000000D+00 Coefficients=  1.0000000000D+00
 D 1 1.00
     Exponent=  4.6900000000D-01 Coefficients=  1.0000000000D+00
 F 1 1.00
     Exponent=  1.0930000000D+00 Coefficients=  1.0000000000D+00
 ****
 Ernie: Thresh=  0.10000D-02 Tol=  0.10000D-05 Strict=F.
   939 basis functions,  1610 primitive gaussians,  1080 cartesian basis functions
   140 alpha electrons      126 beta electrons
       nuclear repulsion energy      5041.0436291633 Hartrees.
 IExCor= 4134 DFT=T Ex+Corr=M06L ExCW=0 ScaHFX=  0.000000
 ScaDFX=  1.000000  1.000000  1.000000  1.000000 ScalE2=  1.000000  1.000000
 IRadAn=      5 IRanWt=     -1 IRanGd=            0 ICorTp=0 IEmpDi=  4
 NAtoms=   37 NActive=   37 NUniq=   37 SFac= 1.00D+00 NAtFMM=   60 NAOKFM=F Big=F
 Integral buffers will be    131072 words long.
 Raffenetti 2 integral format.
 Two-electron integral symmetry is turned off.
 Leave Link  301 at Wed Feb  1 16:16:53 2023, MaxMem= 14763950080 cpu:               0.1 elap:               0.3
 (Enter /software/commercial/gaussian/g16/AVX2/g16/l302.exe)
 NPDir=0 NMtPBC=     1 NCelOv=     1 NCel=       1 NClECP=     1 NCelD=      1
         NCelK=      1 NCelE2=     1 NClLst=     1 CellRange=     0.0.
 One-electron integrals computed using PRISM.
 NBasis=   939 RedAO= T EigKep=  1.11D-04  NBF=   939
 NBsUse=   939 1.00D-06 EigRej= -1.00D+00 NBFU=   939
 Precomputing XC quadrature grid using
 IXCGrd= 4 IRadAn=           5 IRanWt=          -1 IRanGd=           0 AccXCQ= 0.00D+00.
 Generated NRdTot=       0 NPtTot=           0 NUsed=           0 NTot=          32
 NSgBfM=  1062  1062  1062  1062  1062 MxSgAt=    37 MxSgA2=    37.
 Leave Link  302 at Wed Feb  1 16:16:56 2023, MaxMem= 14763950080 cpu:               3.6 elap:               2.4
 (Enter /software/commercial/gaussian/g16/AVX2/g16/l303.exe)
 DipDrv:  MaxL=1.
 Leave Link  303 at Wed Feb  1 16:16:57 2023, MaxMem= 14763950080 cpu:               0.3 elap:               0.3
 (Enter /software/commercial/gaussian/g16/AVX2/g16/l401.exe)
 Initial guess from the checkpoint file:  "/scratch1/svicchi/G09-84877.pbs02/02-freq/FeFeFe-AO-2xH2O-freq.chk"
 B after Tr=     0.000000    0.000000    0.000000
         Rot=    1.000000    0.000000    0.000000    0.000000 Ang=   0.00 deg.
 Guess basis will be translated and rotated to current coordinates.
 GSVD:  received Info=                   1 from GESDD.
 JPrj=2 DoOrth=T DoCkMO=T.
 Initial guess <Sx>= 0.0000 <Sy>= 0.0000 <Sz>= 7.0000 <S**2>=56.0659 S= 7.0044
 Leave Link  401 at Wed Feb  1 16:17:01 2023, MaxMem= 14763950080 cpu:               4.7 elap:               3.8
 (Enter /software/commercial/gaussian/g16/AVX2/g16/l502.exe)
 Two-electron integral symmetry not used.
 UHF open shell SCF:
 Using DIIS extrapolation, IDIIS=  1040.
 NGot= 14763950080 LenX= 14761603162 LenY= 14760435682
 Requested convergence on RMS density matrix=1.00D-08 within 150 cycles.
 Requested convergence on MAX density matrix=1.00D-06.
 Requested convergence on             energy=1.00D-06.
 No special actions if energy rises.
 Fock matrices will be formed incrementally for  20 cycles.

 Cycle   1  Pass 1  IDiag  1:
 FoFJK:  IHMeth= 1 ICntrl=     500 DoSepK=F KAlg= 0 I1Cent=           0 FoldK=F
 IRaf= 750000000 NMat=       1 IRICut=       1 DoRegI=T DoRafI=F ISym2E= 0 IDoP0=0 IntGTp=1.
 FoFCou: FMM=F IPFlag=           0 FMFlag=      100000 FMFlg1=           0
         NFxFlg=           0 DoJE=T BraDBF=F KetDBF=F FulRan=T
         wScrn=  0.000000 ICntrl=       500 IOpCl=  0 I1Cent=           0 NGrid=           0
         NMat0=    1 NMatS0=      1 NMatT0=    0 NMatD0=    1 NMtDS0=    0 NMtDT0=    0
 Symmetry not used in FoFCou.
 E= -5339.76532294135    
 DIIS: error= 5.14D-08 at cycle   1 NSaved=   1.
 NSaved= 1 IEnMin= 1 EnMin= -5339.76532294135     IErMin= 1 ErrMin= 5.14D-08
 ErrMax= 5.14D-08  0.00D+00 EMaxC= 1.00D-01 BMatC= 5.77D-12 BMatP= 5.77D-12
 IDIUse=1 WtCom= 1.00D+00 WtEn= 0.00D+00
 Coeff-Com:  0.100D+01
 Coeff:      0.100D+01
 Gap=     0.165 Goal=   None    Shift=    0.000
 Gap=     0.018 Goal=   None    Shift=    0.000
 RMSDP=2.03D-08 MaxDP=7.28D-06              OVMax= 3.14D-05

 Cycle   2  Pass 1  IDiag  1:
 RMSU=  2.03D-08    CP:  1.00D+00
 E= -5339.76532294107     Delta-E=        0.000000000271 Rises=F Damp=F
 DIIS: error= 1.00D-06 at cycle   2 NSaved=   2.
 NSaved= 2 IEnMin= 1 EnMin= -5339.76532294135     IErMin= 1 ErrMin= 5.14D-08
 ErrMax= 1.00D-06  0.00D+00 EMaxC= 1.00D-01 BMatC= 2.27D-09 BMatP= 5.77D-12
 IDIUse=1 WtCom= 1.00D+00 WtEn= 0.00D+00
 Coeff-Com:  0.953D+00 0.474D-01
 Coeff:      0.953D+00 0.474D-01
 Gap=     0.165 Goal=   None    Shift=    0.000
 Gap=     0.018 Goal=   None    Shift=    0.000
 RMSDP=1.93D-08 MaxDP=7.01D-06 DE= 2.71D-10 OVMax= 2.99D-05

 Cycle   3  Pass 1  IDiag  1:
 RMSU=  1.59D-09    CP:  1.00D+00  4.95D-02
 E= -5339.76532294152     Delta-E=       -0.000000000446 Rises=F Damp=F
 DIIS: error= 3.52D-08 at cycle   3 NSaved=   3.
 NSaved= 3 IEnMin= 3 EnMin= -5339.76532294152     IErMin= 3 ErrMin= 3.52D-08
 ErrMax= 3.52D-08  0.00D+00 EMaxC= 1.00D-01 BMatC= 2.44D-12 BMatP= 5.77D-12
 IDIUse=1 WtCom= 1.00D+00 WtEn= 0.00D+00
 Coeff-Com:  0.856D+00 0.430D-01 0.101D+00
 Coeff:      0.856D+00 0.430D-01 0.101D+00
 Gap=     0.165 Goal=   None    Shift=    0.000
 Gap=     0.018 Goal=   None    Shift=    0.000
 RMSDP=1.19D-09 MaxDP=4.05D-07 DE=-4.46D-10 OVMax= 1.84D-06

 SCF Done:  E(UM06L) =  -5339.76532294     A.U. after    3 cycles
            NFock=  3  Conv=0.12D-08     -V/T= 2.0017
 <Sx>= 0.0000 <Sy>= 0.0000 <Sz>= 7.0000 <S**2>=56.0659 S= 7.0044
 <L.S>=  0.00000000000    
 KE= 5.330643696481D+03 PE=-2.275601108156D+04 EE= 7.044558432975D+03
 Annihilation of the first spin contaminant:
 S**2 before annihilation    56.0659,   after    56.0003
 Leave Link  502 at Wed Feb  1 16:30:46 2023, MaxMem= 14763950080 cpu:            1636.2 elap:             824.7
 (Enter /software/commercial/gaussian/g16/AVX2/g16/l508.exe)
 QCSCF skips out because SCF is already converged.
 Leave Link  508 at Wed Feb  1 16:30:47 2023, MaxMem= 14763950080 cpu:               0.0 elap:               0.1
 (Enter /software/commercial/gaussian/g16/AVX2/g16/l801.exe)
 DoSCS=F DFT=T ScalE2(SS,OS)=  1.000000  1.000000
 Range of M.O.s used for correlation:     1   939
 NBasis=   939 NAE=   140 NBE=   126 NFC=     0 NFV=     0
 NROrb=    939 NOA=   140 NOB=   126 NVA=   799 NVB=   813

 **** Warning!!: The largest alpha MO coefficient is  0.23060738D+02


 **** Warning!!: The largest beta MO coefficient is  0.23241508D+02


 **** Warning!!: The smallest beta delta epsilon is  0.17971885D-01

 Leave Link  801 at Wed Feb  1 16:30:47 2023, MaxMem= 14763950080 cpu:               0.1 elap:               0.1
 (Enter /software/commercial/gaussian/g16/AVX2/g16/l1002.exe)
 Minotr:  UHF open shell wavefunction.
          Direct CPHF calculation.
          Differentiating once with respect to electric field.
                with respect to dipole field.
          Electric field/nuclear overlap derivatives assumed to be zero.
          Requested convergence is 1.0D-08 RMS, and 1.0D-07 maximum.
          Secondary convergence is 1.0D-12 RMS, and 1.0D-12 maximum.
          NewPWx=F KeepS1=T KeepF1=T KeepIn=T MapXYZ=F SortEE=F KeepMc=T.
        11391 words used for storage of precomputed grid.
 Two-electron integral symmetry not used.
          MDV=   14763950080 using IRadAn=       1.
          Solving linear equations simultaneously, MaxMat=     384.
          There are     3 degrees of freedom in the 1st order CPHF.  IDoFFX=0 NUNeed=     3.
      3 vectors produced by pass  0 Test12= 7.14D-12 3.33D-08 XBig12= 1.92D+04 1.02D+02.
 AX will form     3 AO Fock derivatives at one time.
 FoFJK:  IHMeth= 1 ICntrl=     500 DoSepK=F KAlg= 0 I1Cent=           0 FoldK=F
 IRaf= 750000000 NMat=       3 IRICut=       1 DoRegI=T DoRafI=F ISym2E= 0 IDoP0=0 IntGTp=1.
 FoFCou: FMM=F IPFlag=           0 FMFlag=      100000 FMFlg1=           0
         NFxFlg=           0 DoJE=T BraDBF=F KetDBF=F FulRan=T
         wScrn=  0.000000 ICntrl=       500 IOpCl=  0 I1Cent=           0 NGrid=           0
         NMat0=    3 NMatS0=      3 NMatT0=    0 NMatD0=    3 NMtDS0=    0 NMtDT0=    0
 Symmetry not used in FoFCou.
      3 vectors produced by pass  1 Test12= 7.14D-12 3.33D-08 XBig12= 2.08D+05 1.05D+02.
      3 vectors produced by pass  2 Test12= 7.14D-12 3.33D-08 XBig12= 2.12D+05 8.70D+01.
      3 vectors produced by pass  3 Test12= 7.14D-12 3.33D-08 XBig12= 1.76D+05 7.26D+01.
      3 vectors produced by pass  4 Test12= 7.14D-12 3.33D-08 XBig12= 1.33D+05 1.09D+02.
      3 vectors produced by pass  5 Test12= 7.14D-12 3.33D-08 XBig12= 1.32D+05 1.55D+02.
      3 vectors produced by pass  6 Test12= 7.14D-12 3.33D-08 XBig12= 7.35D+04 1.07D+02.
      3 vectors produced by pass  7 Test12= 7.14D-12 3.33D-08 XBig12= 3.32D+04 4.69D+01.
      3 vectors produced by pass  8 Test12= 7.14D-12 3.33D-08 XBig12= 2.48D+04 2.74D+01.
      3 vectors produced by pass  9 Test12= 7.14D-12 3.33D-08 XBig12= 1.29D+04 1.44D+01.
      3 vectors produced by pass 10 Test12= 7.14D-12 3.33D-08 XBig12= 8.63D+03 1.20D+01.
      3 vectors produced by pass 11 Test12= 7.14D-12 3.33D-08 XBig12= 6.09D+03 2.29D+01.
      3 vectors produced by pass 12 Test12= 7.14D-12 3.33D-08 XBig12= 3.78D+03 1.71D+01.
      3 vectors produced by pass 13 Test12= 7.14D-12 3.33D-08 XBig12= 1.35D+03 1.16D+01.
      3 vectors produced by pass 14 Test12= 7.14D-12 3.33D-08 XBig12= 6.82D+02 7.30D+00.
      3 vectors produced by pass 15 Test12= 7.14D-12 3.33D-08 XBig12= 2.85D+02 3.95D+00.
      3 vectors produced by pass 16 Test12= 7.14D-12 3.33D-08 XBig12= 8.25D+01 2.44D+00.
      3 vectors produced by pass 17 Test12= 7.14D-12 3.33D-08 XBig12= 1.58D+01 1.42D+00.
      3 vectors produced by pass 18 Test12= 7.14D-12 3.33D-08 XBig12= 4.47D+00 6.48D-01.
      3 vectors produced by pass 19 Test12= 7.14D-12 3.33D-08 XBig12= 5.41D-01 1.38D-01.
      3 vectors produced by pass 20 Test12= 7.14D-12 3.33D-08 XBig12= 1.46D-01 3.68D-02.
      3 vectors produced by pass 21 Test12= 7.14D-12 3.33D-08 XBig12= 2.48D-02 1.80D-02.
      3 vectors produced by pass 22 Test12= 7.14D-12 3.33D-08 XBig12= 3.15D-03 7.70D-03.
      3 vectors produced by pass 23 Test12= 7.14D-12 3.33D-08 XBig12= 5.48D-04 3.62D-03.
      3 vectors produced by pass 24 Test12= 7.14D-12 3.33D-08 XBig12= 1.04D-04 1.67D-03.
      3 vectors produced by pass 25 Test12= 7.14D-12 3.33D-08 XBig12= 1.07D-05 5.02D-04.
      3 vectors produced by pass 26 Test12= 7.14D-12 3.33D-08 XBig12= 1.38D-06 1.59D-04.
      3 vectors produced by pass 27 Test12= 7.14D-12 3.33D-08 XBig12= 1.15D-07 3.42D-05.
      3 vectors produced by pass 28 Test12= 7.14D-12 3.33D-08 XBig12= 1.05D-08 1.09D-05.
      2 vectors produced by pass 29 Test12= 7.14D-12 3.33D-08 XBig12= 8.66D-10 2.87D-06.
      2 vectors produced by pass 30 Test12= 7.14D-12 3.33D-08 XBig12= 6.91D-11 1.12D-06.
      2 vectors produced by pass 31 Test12= 7.14D-12 3.33D-08 XBig12= 4.71D-12 1.82D-07.
      2 vectors produced by pass 32 Test12= 7.14D-12 3.33D-08 XBig12= 3.82D-13 5.07D-08.
 InvSVY:  IOpt=1 It=  1 EMax= 1.14D-13
 Solved reduced A of dimension    95 with     3 vectors.
 End of Minotr F.D. properties file   721 does not exist.
 End of Minotr F.D. properties file   722 does not exist.
 End of Minotr F.D. properties file   788 does not exist.
 Leave Link 1002 at Wed Feb  1 20:33:23 2023, MaxMem= 14763950080 cpu:           28931.8 elap:           14555.4
 (Enter /software/commercial/gaussian/g16/AVX2/g16/l1101.exe)
 Using compressed storage, NAtomX=    37.
 Will process     38 centers per pass.
 Leave Link 1101 at Wed Feb  1 20:33:28 2023, MaxMem= 14763950080 cpu:               5.1 elap:               4.0
 (Enter /software/commercial/gaussian/g16/AVX2/g16/l1102.exe)
 Symmetrizing basis deriv contribution to polar:
 IMax=3 JMax=2 DiffMx= 0.00D+00
 Leave Link 1102 at Wed Feb  1 20:33:29 2023, MaxMem= 14763950080 cpu:               0.3 elap:               0.3
 (Enter /software/commercial/gaussian/g16/AVX2/g16/l1110.exe)
 Forming Gx(P) for the SCF density, NAtomX=    37.
 Integral derivatives from FoFJK, PRISM(SPDF).
 Do as many integral derivatives as possible in FoFJK.
 G2DrvN: MDV=   14763946059.
 G2DrvN: will do    38 centers at a time, making    1 passes.
 PxScal for G2LodP:  IOpCl= 1 ISclPx=1 IMOff=     1 NMtTot=     4 NTT=  441330 ScalPx= 2.77D+00
 Calling FoFCou, ICntrl=  3507 FMM=F I1Cent=   0 AccDes= 0.00D+00.
 FoFJK:  IHMeth= 1 ICntrl=    3507 DoSepK=F KAlg= 0 I1Cent=           0 FoldK=F
 IRaf=         0 NMat=       1 IRICut=       1 DoRegI=T DoRafI=F ISym2E= 0 IDoP0=0 IntGTp=1.
 FoFCou: FMM=F IPFlag=           0 FMFlag=      100000 FMFlg1=           0
         NFxFlg=           0 DoJE=F BraDBF=F KetDBF=F FulRan=T
         wScrn=  0.000000 ICntrl=      3507 IOpCl=  0 I1Cent=           0 NGrid=           0
         NMat0=    1 NMatS0=      1 NMatT0=    0 NMatD0=    4 NMtDS0=    3 NMtDT0=    0
 Symmetry not used in FoFCou.
 End of G2Drv F.D. properties file   721 does not exist.
 End of G2Drv F.D. properties file   722 does not exist.
 End of G2Drv F.D. properties file   788 does not exist.
 Leave Link 1110 at Thu Feb  2 00:09:01 2023, MaxMem= 14763950080 cpu:           25751.5 elap:           12931.8
 (Enter /software/commercial/gaussian/g16/AVX2/g16/l1002.exe)
 Minotr:  UHF open shell wavefunction.
          IDoAtm=1111111111111111111111111111111111111
          Direct CPHF calculation.
          Differentiating once with respect to electric field.
                with respect to dipole field.
          Differentiating once with respect to nuclear coordinates.
          Requested convergence is 1.0D-08 RMS, and 1.0D-07 maximum.
          Secondary convergence is 1.0D-12 RMS, and 1.0D-12 maximum.
          NewPWx=T KeepS1=F KeepF1=F KeepIn=T MapXYZ=F SortEE=F KeepMc=T.
        11391 words used for storage of precomputed grid.
 Two-electron integral symmetry not used.
          MDV=   14763950080 using IRadAn=       1.
          Solving linear equations simultaneously, MaxMat=     384.
 FoF2E skips out because all densities are zero.
 CalDSu exits because no D1Ps are significant.
 FoFJK:  IHMeth= 1 ICntrl=     500 DoSepK=F KAlg= 0 I1Cent=           0 FoldK=F
 IRaf= 750000000 NMat=     111 IRICut=       1 DoRegI=T DoRafI=F ISym2E= 0 IDoP0=3 IntGTp=3.
 FoFCou: FMM=F IPFlag=           0 FMFlag=      100000 FMFlg1=           0
         NFxFlg=           0 DoJE=F BraDBF=F KetDBF=F FulRan=T
         wScrn=  0.000000 ICntrl=       500 IOpCl=  0 I1Cent=           0 NGrid=           0
         NMat0=  111 NMatS0=    111 NMatT0=    0 NMatD0=  111 NMtDS0=    0 NMtDT0=    0
 Symmetry not used in FoFCou.
          There are   114 degrees of freedom in the 1st order CPHF.  IDoFFX=5 NUNeed=   114.
 Will reuse    3 saved solutions.
    108 vectors produced by pass  0 Test12= 2.14D-13 1.00D-09 XBig12= 1.43D+00 8.86D-01.
 AX will form   108 AO Fock derivatives at one time.
    108 vectors produced by pass  1 Test12= 2.14D-13 1.00D-09 XBig12= 4.72D+00 3.99D-01.
    108 vectors produced by pass  2 Test12= 2.14D-13 1.00D-09 XBig12= 6.66D-02 3.84D-02.
    108 vectors produced by pass  3 Test12= 2.14D-13 1.00D-09 XBig12= 2.18D-03 4.28D-03.
    108 vectors produced by pass  4 Test12= 2.14D-13 1.00D-09 XBig12= 2.74D-05 3.92D-04.
    108 vectors produced by pass  5 Test12= 2.14D-13 1.00D-09 XBig12= 5.39D-07 3.80D-05.
    108 vectors produced by pass  6 Test12= 2.14D-13 1.00D-09 XBig12= 4.95D-09 4.90D-06.
     93 vectors produced by pass  7 Test12= 2.14D-13 1.00D-09 XBig12= 4.27D-11 3.32D-07.
     28 vectors produced by pass  8 Test12= 2.14D-13 1.00D-09 XBig12= 2.89D-13 2.35D-08.
      1 vectors produced by pass  9 Test12= 2.14D-13 1.00D-09 XBig12= 1.82D-15 1.79D-09.
 InvSVY:  IOpt=1 It=  1 EMax= 3.33D-15
 Solved reduced A of dimension   878 with   114 vectors.
 FullF1:  Do perturbations      1 to       3.
 Isotropic polarizability for W=    0.000000      250.35 Bohr**3.
 FullF1:  Do perturbations      1 to       6.
 End of Minotr F.D. properties file   721 does not exist.
 End of Minotr F.D. properties file   722 does not exist.
 End of Minotr F.D. properties file   788 does not exist.
 Leave Link 1002 at Thu Feb  2 09:39:01 2023, MaxMem= 14763950080 cpu:           67592.6 elap:           34199.2
 (Enter /software/commercial/gaussian/g16/AVX2/g16/l601.exe)
 Copying SCF densities to generalized density rwf, IOpCl= 1 IROHF=0.

 **********************************************************************

            Population analysis using the SCF Density.

 **********************************************************************

 Alpha  occ. eigenvalues -- -255.61143-255.60988-255.60982 -30.05635 -30.05471
 Alpha  occ. eigenvalues --  -30.05466 -25.83310 -25.83123 -25.83120 -25.82529
 Alpha  occ. eigenvalues --  -25.82397 -25.82385 -25.82360 -25.82164 -25.82163
 Alpha  occ. eigenvalues --  -19.07682 -19.01569 -19.01557 -18.97269 -18.97259
 Alpha  occ. eigenvalues --  -18.97258 -18.97236 -18.97142 -18.97129 -18.97122
 Alpha  occ. eigenvalues --  -18.97063 -18.97059 -18.97047 -18.96988 -18.96938
 Alpha  occ. eigenvalues --  -18.94941 -14.39560 -14.26849 -10.17202 -10.17144
 Alpha  occ. eigenvalues --  -10.16985 -10.16870 -10.16734 -10.16692  -3.62560
 Alpha  occ. eigenvalues --   -3.62456  -3.62450  -2.37811  -2.37668  -2.37652
 Alpha  occ. eigenvalues --   -2.36172  -2.36142  -2.36119  -2.35801  -2.35658
 Alpha  occ. eigenvalues --   -2.35655  -1.21962  -1.05980  -1.05748  -1.05664
 Alpha  occ. eigenvalues --   -1.05409  -1.05351  -1.05262  -1.04982  -1.03762
 Alpha  occ. eigenvalues --   -1.03695  -0.98120  -0.98051  -0.97808  -0.97694
 Alpha  occ. eigenvalues --   -0.97650  -0.97529  -0.92314  -0.59824  -0.58522
 Alpha  occ. eigenvalues --   -0.57777  -0.57539  -0.57239  -0.57163  -0.57061
 Alpha  occ. eigenvalues --   -0.53873  -0.53768  -0.53526  -0.53128  -0.48465
 Alpha  occ. eigenvalues --   -0.48248  -0.47559  -0.47075  -0.47026  -0.46802
 Alpha  occ. eigenvalues --   -0.46512  -0.46465  -0.46189  -0.45830  -0.45677
 Alpha  occ. eigenvalues --   -0.45477  -0.44610  -0.43867  -0.43312  -0.42780
 Alpha  occ. eigenvalues --   -0.41789  -0.41697  -0.41011  -0.40845  -0.39984
 Alpha  occ. eigenvalues --   -0.39833  -0.39702  -0.38094  -0.37186  -0.36881
 Alpha  occ. eigenvalues --   -0.36469  -0.36322  -0.36046  -0.35973  -0.35554
 Alpha  occ. eigenvalues --   -0.35356  -0.35186  -0.35071  -0.33775  -0.33014
 Alpha  occ. eigenvalues --   -0.32971  -0.32674  -0.32136  -0.32067  -0.31442
 Alpha  occ. eigenvalues --   -0.30891  -0.28876  -0.28507  -0.28417  -0.28301
 Alpha  occ. eigenvalues --   -0.28057  -0.27980  -0.27769  -0.27637  -0.27261
 Alpha  occ. eigenvalues --   -0.27033  -0.26762  -0.26656  -0.26142  -0.24419
 Alpha  occ. eigenvalues --   -0.23707  -0.21796  -0.21620  -0.21408  -0.21342
 Alpha virt. eigenvalues --   -0.04802  -0.04304  -0.03149  -0.02549  -0.02384
 Alpha virt. eigenvalues --   -0.02134  -0.01229  -0.01097   0.02201   0.02987
 Alpha virt. eigenvalues --    0.05026   0.07396   0.07856   0.08464   0.08564
 Alpha virt. eigenvalues --    0.09182   0.09441   0.09543   0.10063   0.10144
 Alpha virt. eigenvalues --    0.11591   0.12132   0.13166   0.14550   0.15031
 Alpha virt. eigenvalues --    0.15220   0.16591   0.16951   0.17444   0.17683
 Alpha virt. eigenvalues --    0.18752   0.19288   0.20529   0.21862   0.22243
 Alpha virt. eigenvalues --    0.22755   0.23205   0.23293   0.23508   0.23793
 Alpha virt. eigenvalues --    0.24399   0.26036   0.26260   0.26387   0.26891
 Alpha virt. eigenvalues --    0.27322   0.28008   0.28370   0.28491   0.28889
 Alpha virt. eigenvalues --    0.29659   0.29962   0.30438   0.30745   0.31184
 Alpha virt. eigenvalues --    0.31676   0.31737   0.31847   0.32081   0.32771
 Alpha virt. eigenvalues --    0.33123   0.33825   0.34948   0.35471   0.35694
 Alpha virt. eigenvalues --    0.36292   0.36404   0.37106   0.38239   0.38635
 Alpha virt. eigenvalues --    0.38829   0.39055   0.39447   0.39984   0.40082
 Alpha virt. eigenvalues --    0.40550   0.40789   0.40995   0.41217   0.41387
 Alpha virt. eigenvalues --    0.41835   0.42060   0.42482   0.42887   0.43224
 Alpha virt. eigenvalues --    0.43776   0.44410   0.44745   0.45044   0.46338
 Alpha virt. eigenvalues --    0.46393   0.47020   0.47496   0.47940   0.48699
 Alpha virt. eigenvalues --    0.50181   0.50482   0.51074   0.51516   0.51653
 Alpha virt. eigenvalues --    0.52346   0.53062   0.53328   0.53859   0.54300
 Alpha virt. eigenvalues --    0.54587   0.54983   0.55355   0.57228   0.57737
 Alpha virt. eigenvalues --    0.57997   0.59010   0.59181   0.60379   0.61208
 Alpha virt. eigenvalues --    0.61483   0.62388   0.62697   0.63150   0.63928
 Alpha virt. eigenvalues --    0.64671   0.65646   0.65943   0.66282   0.67992
 Alpha virt. eigenvalues --    0.68219   0.68382   0.68849   0.69568   0.70135
 Alpha virt. eigenvalues --    0.70873   0.71192   0.71484   0.71679   0.72099
 Alpha virt. eigenvalues --    0.72573   0.73311   0.73938   0.74649   0.74923
 Alpha virt. eigenvalues --    0.75060   0.75122   0.75740   0.75940   0.76109
 Alpha virt. eigenvalues --    0.76896   0.77455   0.78541   0.78903   0.80049
 Alpha virt. eigenvalues --    0.80279   0.80367   0.82359   0.82905   0.83877
 Alpha virt. eigenvalues --    0.84785   0.85273   0.86708   0.87777   0.88209
 Alpha virt. eigenvalues --    0.88780   0.89445   0.90070   0.90441   0.91233
 Alpha virt. eigenvalues --    0.91748   0.92122   0.93552   0.93833   0.94673
 Alpha virt. eigenvalues --    0.95083   0.95709   0.96429   0.97126   0.97180
 Alpha virt. eigenvalues --    0.97858   0.98434   0.98865   0.99341   1.01251
 Alpha virt. eigenvalues --    1.01807   1.02545   1.03173   1.03413   1.03915
 Alpha virt. eigenvalues --    1.05150   1.05457   1.05613   1.06598   1.06841
 Alpha virt. eigenvalues --    1.07156   1.07568   1.08631   1.08945   1.09362
 Alpha virt. eigenvalues --    1.09447   1.10273   1.10412   1.11803   1.13408
 Alpha virt. eigenvalues --    1.15083   1.15423   1.16956   1.19011   1.19888
 Alpha virt. eigenvalues --    1.23102   1.23512   1.24109   1.25064   1.25682
 Alpha virt. eigenvalues --    1.25916   1.27157   1.27438   1.28423   1.29182
 Alpha virt. eigenvalues --    1.29970   1.30558   1.32768   1.34041   1.34730
 Alpha virt. eigenvalues --    1.34933   1.36921   1.39047   1.39877   1.41710
 Alpha virt. eigenvalues --    1.42191   1.42656   1.42775   1.43412   1.44103
 Alpha virt. eigenvalues --    1.45659   1.46745   1.48168   1.48941   1.49478
 Alpha virt. eigenvalues --    1.50804   1.51754   1.52161   1.53330   1.53651
 Alpha virt. eigenvalues --    1.54084   1.54668   1.55047   1.56366   1.58088
 Alpha virt. eigenvalues --    1.58702   1.59205   1.59594   1.60428   1.60634
 Alpha virt. eigenvalues --    1.61386   1.61556   1.62252   1.62817   1.63898
 Alpha virt. eigenvalues --    1.65332   1.65544   1.66681   1.68454   1.68526
 Alpha virt. eigenvalues --    1.68546   1.69150   1.70308   1.71159   1.71392
 Alpha virt. eigenvalues --    1.72742   1.73260   1.73383   1.73657   1.75325
 Alpha virt. eigenvalues --    1.76113   1.76662   1.78479   1.79015   1.80062
 Alpha virt. eigenvalues --    1.81134   1.82839   1.83764   1.86182   1.86274
 Alpha virt. eigenvalues --    1.87100   1.89151   1.89228   1.89606   1.91092
 Alpha virt. eigenvalues --    1.92146   1.92537   1.93136   1.93941   1.95363
 Alpha virt. eigenvalues --    1.95513   1.96719   1.96981   1.97256   1.98795
 Alpha virt. eigenvalues --    1.99603   2.00399   2.00920   2.01609   2.01851
 Alpha virt. eigenvalues --    2.02242   2.03087   2.03993   2.04316   2.05468
 Alpha virt. eigenvalues --    2.06637   2.06902   2.07680   2.07934   2.08332
 Alpha virt. eigenvalues --    2.09388   2.09670   2.10537   2.10648   2.11464
 Alpha virt. eigenvalues --    2.11931   2.12189   2.12709   2.13911   2.14080
 Alpha virt. eigenvalues --    2.14833   2.15356   2.16337   2.17152   2.17438
 Alpha virt. eigenvalues --    2.18519   2.18833   2.19139   2.19421   2.19775
 Alpha virt. eigenvalues --    2.21154   2.21326   2.21744   2.22514   2.23694
 Alpha virt. eigenvalues --    2.24091   2.24976   2.26439   2.26971   2.27666
 Alpha virt. eigenvalues --    2.27930   2.28566   2.29448   2.29651   2.30810
 Alpha virt. eigenvalues --    2.31747   2.32387   2.33376   2.36081   2.36382
 Alpha virt. eigenvalues --    2.38376   2.39254   2.39549   2.41219   2.42889
 Alpha virt. eigenvalues --    2.44809   2.46425   2.46865   2.47186   2.47389
 Alpha virt. eigenvalues --    2.48792   2.49528   2.50641   2.51596   2.54501
 Alpha virt. eigenvalues --    2.54988   2.55736   2.56085   2.58145   2.58559
 Alpha virt. eigenvalues --    2.58659   2.64500   2.65699   2.66183   2.66427
 Alpha virt. eigenvalues --    2.68112   2.68221   2.68605   2.69381   2.69693
 Alpha virt. eigenvalues --    2.71515   2.72057   2.72654   2.72805   2.75042
 Alpha virt. eigenvalues --    2.76269   2.76430   2.76824   2.81018   2.82166
 Alpha virt. eigenvalues --    2.82901   2.83073   2.84150   2.87912   2.89195
 Alpha virt. eigenvalues --    2.89432   2.90309   2.91806   2.92609   2.95297
 Alpha virt. eigenvalues --    2.96026   2.97015   2.97618   2.98589   2.99338
 Alpha virt. eigenvalues --    2.99694   3.00011   3.00833   3.01194   3.02848
 Alpha virt. eigenvalues --    3.03714   3.04000   3.04487   3.04814   3.05291
 Alpha virt. eigenvalues --    3.05589   3.05782   3.06989   3.07464   3.08598
 Alpha virt. eigenvalues --    3.10010   3.10330   3.10899   3.12795   3.14128
 Alpha virt. eigenvalues --    3.14524   3.14749   3.15380   3.15630   3.16412
 Alpha virt. eigenvalues --    3.16660   3.17123   3.17206   3.17640   3.17895
 Alpha virt. eigenvalues --    3.18796   3.19706   3.21592   3.23037   3.24022
 Alpha virt. eigenvalues --    3.24376   3.25686   3.25877   3.26475   3.27534
 Alpha virt. eigenvalues --    3.28670   3.29305   3.30526   3.31468   3.32419
 Alpha virt. eigenvalues --    3.32546   3.32841   3.33859   3.34984   3.39070
 Alpha virt. eigenvalues --    3.40061   3.41148   3.42724   3.43273   3.45231
 Alpha virt. eigenvalues --    3.45337   3.46263   3.46456   3.46685   3.47596
 Alpha virt. eigenvalues --    3.47978   3.48939   3.49297   3.49975   3.50372
 Alpha virt. eigenvalues --    3.50895   3.50997   3.51406   3.51703   3.52064
 Alpha virt. eigenvalues --    3.52288   3.52949   3.54086   3.54700   3.56024
 Alpha virt. eigenvalues --    3.57059   3.58114   3.58702   3.61090   3.62864
 Alpha virt. eigenvalues --    3.63303   3.63553   3.64466   3.64865   3.65334
 Alpha virt. eigenvalues --    3.66303   3.66549   3.66961   3.68369   3.70134
 Alpha virt. eigenvalues --    3.70633   3.71649   3.72720   3.74526   3.74750
 Alpha virt. eigenvalues --    3.75847   3.80496   3.80875   3.81101   3.82061
 Alpha virt. eigenvalues --    3.82503   3.83278   3.83992   3.86059   3.87458
 Alpha virt. eigenvalues --    3.88666   3.89500   3.92382   3.94351   3.94460
 Alpha virt. eigenvalues --    3.95051   3.95292   3.95655   3.96005   3.96915
 Alpha virt. eigenvalues --    3.97110   3.98255   3.98528   3.99071   3.99123
 Alpha virt. eigenvalues --    4.00044   4.00406   4.00544   4.00756   4.02441
 Alpha virt. eigenvalues --    4.03529   4.05793   4.07632   4.08765   4.09761
 Alpha virt. eigenvalues --    4.14272   4.14663   4.14821   4.15003   4.16325
 Alpha virt. eigenvalues --    4.16746   4.17735   4.20271   4.21464   4.22715
 Alpha virt. eigenvalues --    4.23431   4.24089   4.24224   4.24624   4.25864
 Alpha virt. eigenvalues --    4.26843   4.28364   4.28855   4.34489   4.35270
 Alpha virt. eigenvalues --    4.37386   4.38328   4.42789   4.45622   4.48636
 Alpha virt. eigenvalues --    4.49298   4.49736   4.51395   4.52757   4.53756
 Alpha virt. eigenvalues --    4.55689   4.56382   4.57234   4.57652   4.58475
 Alpha virt. eigenvalues --    4.58940   4.60675   4.65704   4.72609   4.74057
 Alpha virt. eigenvalues --    4.76204   4.99088   5.02531   5.03523   5.18282
 Alpha virt. eigenvalues --    5.18299   5.22457   5.23720   5.24634   5.24670
 Alpha virt. eigenvalues --    5.24762   5.24934   5.25700   5.25928   5.26316
 Alpha virt. eigenvalues --    5.26501   5.26667   5.27005   5.27193   5.27221
 Alpha virt. eigenvalues --    5.27304   5.27826   5.27878   5.29322   5.29566
 Alpha virt. eigenvalues --    5.30944   5.31160   5.31446   5.32237   5.32873
 Alpha virt. eigenvalues --    5.33033   5.33180   5.33590   5.33974   5.34655
 Alpha virt. eigenvalues --    5.35551   5.35924   5.36355   5.38044   5.38344
 Alpha virt. eigenvalues --    5.40754   5.42885   5.43314   5.43762   5.44936
 Alpha virt. eigenvalues --    5.48772   5.48818   5.50222   5.50527   5.53514
 Alpha virt. eigenvalues --    5.53687   5.54260   5.54754   5.59624   5.59673
 Alpha virt. eigenvalues --    5.60148   5.60582   5.60801   5.62218   5.62588
 Alpha virt. eigenvalues --    5.63809   5.64061   5.65147   5.65353   5.69586
 Alpha virt. eigenvalues --    5.70176   5.70566   5.70918   5.71031   5.71185
 Alpha virt. eigenvalues --    5.71384   5.83207   5.84297   5.88602   5.90046
 Alpha virt. eigenvalues --    5.90459   5.91060   5.92615   5.93576   5.95497
 Alpha virt. eigenvalues --    5.96367   5.97132   6.06024   6.07514   6.09380
 Alpha virt. eigenvalues --    6.09874   6.10356   6.10745   6.12244   6.12593
 Alpha virt. eigenvalues --    6.17068   6.17290   6.18081   6.18401   6.18412
 Alpha virt. eigenvalues --    6.18525   6.19498   6.20556   6.20602   6.22499
 Alpha virt. eigenvalues --    6.23181   6.27673   6.37031   6.37352   6.37817
 Alpha virt. eigenvalues --    6.41194   6.41267   6.44987   6.45192   6.45691
 Alpha virt. eigenvalues --    6.46683   6.47862   6.48881   6.49168   6.49356
 Alpha virt. eigenvalues --    6.50054   6.50335   6.51313   6.52112   6.53095
 Alpha virt. eigenvalues --    6.55064   6.55792   6.56288   6.56905   6.58484
 Alpha virt. eigenvalues --    6.58617   6.59195   6.59268   6.60861   6.61289
 Alpha virt. eigenvalues --    6.62053   6.62437   6.64164   6.65611   6.66339
 Alpha virt. eigenvalues --    6.66956   6.67668   6.67876   6.68516   6.70322
 Alpha virt. eigenvalues --    6.70771   6.71702   6.75979   6.76313   6.77135
 Alpha virt. eigenvalues --    6.81649   6.86242   6.86863   6.87277   6.88849
 Alpha virt. eigenvalues --    6.89193   6.90995   6.91236   6.91449   6.91838
 Alpha virt. eigenvalues --    6.92115   6.92965   6.94109   6.94595   6.95025
 Alpha virt. eigenvalues --    6.97243   6.97826   6.98143   6.99006   6.99542
 Alpha virt. eigenvalues --    7.01088   7.05380   7.05956   7.07046   7.07732
 Alpha virt. eigenvalues --    7.07828   7.09601   7.09829   7.12341   7.12634
 Alpha virt. eigenvalues --    7.13684   7.14619   7.15517   7.24583   7.24977
 Alpha virt. eigenvalues --    7.26145   7.26288   7.26791   7.27866   7.28159
 Alpha virt. eigenvalues --    7.28867   7.29278   7.29618   7.30346   7.30901
 Alpha virt. eigenvalues --    7.34339   7.35106   7.35552   7.37558   7.41152
 Alpha virt. eigenvalues --    7.42591   7.44310   7.44466   7.53041   7.72450
 Alpha virt. eigenvalues --   23.23015  23.23309  23.23496  23.23828  23.23907
 Alpha virt. eigenvalues --   23.26893  31.92755  33.01816  43.68774  43.71426
 Alpha virt. eigenvalues --   43.84947  43.97111  43.98547  43.99108  44.00327
 Alpha virt. eigenvalues --   44.07256  44.14103  44.16564  44.20197  44.20376
 Alpha virt. eigenvalues --   44.31886  44.32415  44.33662  44.48274
  Beta  occ. eigenvalues -- -255.60973-255.60823-255.60817 -29.94409 -29.94189
  Beta  occ. eigenvalues --  -29.94180 -25.74790 -25.74507 -25.74501 -25.74418
  Beta  occ. eigenvalues --  -25.74347 -25.74252 -25.74241 -25.74169 -25.74162
  Beta  occ. eigenvalues --  -19.07643 -19.01411 -19.01401 -18.97015 -18.97007
  Beta  occ. eigenvalues --  -18.96988 -18.96986 -18.96875 -18.96854 -18.96832
  Beta  occ. eigenvalues --  -18.96757 -18.96734 -18.96725 -18.96680 -18.96624
  Beta  occ. eigenvalues --  -18.93281 -14.39562 -14.26826 -10.17228 -10.17168
  Beta  occ. eigenvalues --  -10.17009 -10.16895 -10.16765 -10.16718  -3.38416
  Beta  occ. eigenvalues --   -3.38101  -3.38089  -2.13328  -2.12871  -2.12842
  Beta  occ. eigenvalues --   -2.12671  -2.12653  -2.12493  -2.12473  -2.12423
  Beta  occ. eigenvalues --   -2.12412  -1.21893  -1.05466  -1.05246  -1.05137
  Beta  occ. eigenvalues --   -1.04920  -1.04844  -1.04754  -1.04666  -1.03437
  Beta  occ. eigenvalues --   -1.03369  -0.97477  -0.97409  -0.97161  -0.96996
  Beta  occ. eigenvalues --   -0.96906  -0.96778  -0.87824  -0.59617  -0.57964
  Beta  occ. eigenvalues --   -0.57348  -0.57077  -0.56691  -0.56495  -0.56375
  Beta  occ. eigenvalues --   -0.53638  -0.53537  -0.53333  -0.53095  -0.47471
  Beta  occ. eigenvalues --   -0.47247  -0.46471  -0.45959  -0.45838  -0.45673
  Beta  occ. eigenvalues --   -0.45448  -0.45321  -0.44978  -0.44924  -0.44794
  Beta  occ. eigenvalues --   -0.44592  -0.44448  -0.42014  -0.41221  -0.41097
  Beta  occ. eigenvalues --   -0.40739  -0.40726  -0.40196  -0.39438  -0.39307
  Beta  occ. eigenvalues --   -0.35154  -0.35043  -0.33533  -0.33184  -0.32729
  Beta  occ. eigenvalues --   -0.32125  -0.30539  -0.30480  -0.30373  -0.29463
  Beta  occ. eigenvalues --   -0.28471  -0.28415  -0.28327  -0.28193  -0.28130
  Beta  occ. eigenvalues --   -0.27940  -0.27831  -0.27406  -0.27059  -0.27009
  Beta  occ. eigenvalues --   -0.26784  -0.26203  -0.26189  -0.26081  -0.24603
  Beta  occ. eigenvalues --   -0.16541
  Beta virt. eigenvalues --   -0.14744  -0.14719  -0.14657  -0.14580  -0.14291
  Beta virt. eigenvalues --   -0.13869  -0.13385  -0.10995  -0.10023  -0.08352
  Beta virt. eigenvalues --   -0.07583  -0.07316  -0.07305  -0.06715  -0.04269
  Beta virt. eigenvalues --   -0.04255  -0.02390  -0.02098  -0.01934  -0.01783
  Beta virt. eigenvalues --   -0.01044  -0.00907   0.02460   0.03230   0.05527
  Beta virt. eigenvalues --    0.07916   0.08025   0.08613   0.08850   0.09284
  Beta virt. eigenvalues --    0.09561   0.09634   0.10216   0.10292   0.12188
  Beta virt. eigenvalues --    0.12495   0.13508   0.15185   0.16365   0.16535
  Beta virt. eigenvalues --    0.17690   0.17911   0.18326   0.19282   0.19849
  Beta virt. eigenvalues --    0.21214   0.21829   0.22206   0.22841   0.23392
  Beta virt. eigenvalues --    0.23645   0.23717   0.23961   0.24244   0.24761
  Beta virt. eigenvalues --    0.26433   0.26934   0.27175   0.27742   0.27784
  Beta virt. eigenvalues --    0.28155   0.28540   0.28703   0.29271   0.30103
  Beta virt. eigenvalues --    0.30846   0.31018   0.31242   0.31933   0.32021
  Beta virt. eigenvalues --    0.32282   0.32380   0.32698   0.33129   0.33545
  Beta virt. eigenvalues --    0.34366   0.35200   0.35936   0.36220   0.36677
  Beta virt. eigenvalues --    0.36743   0.37454   0.38645   0.39030   0.39559
  Beta virt. eigenvalues --    0.39732   0.40240   0.40300   0.40638   0.41032
  Beta virt. eigenvalues --    0.41498   0.41675   0.41804   0.42223   0.42657
[...]
 -0.00007450,-0.00063933,-0.00045898,-0.00025132,0.00011503,-0.00009239
 ,0.00000803,0.00001341,0.00002667,-0.00007180,-0.00000455,0.00005929,0
 .00001806,0.00001535,-0.00002295,-0.00006728,-0.00004640,0.00000174,0.
 00001147,0.00001402,-0.00000006,0.00009926,0.00001680,-0.00000309,0.15
 308557,-0.14337138,-0.11162481,-0.16823591,0.15278970,0.00049802,-0.00
 007958,-0.00032810,0.00017032,0.00005167,-0.00002651,-0.00023151,0.000
 12448,0.00004538,0.00003351,-0.00002828,-0.00000877,0.00101495,0.00188
 587,-0.00053417,0.00013255,0.00136341,-0.00115040,0.00016119,-0.003119
 28,-0.00123304,0.00002524,-0.00003966,0.00008600,-0.00002802,0.0000217
 3,-0.00005860,-0.00062192,-0.00117688,0.00044261,-0.00048526,-0.000837
 31,-0.00045500,0.00016103,0.00165067,-0.00002356,0.00001340,-0.0000086
 7,-0.00002030,-0.00011023,0.00010042,0.00010292,-0.00071281,-0.0007339
 3,-0.00105082,-0.00005456,-0.00018240,-0.00005614,-0.00003132,0.000035
 79,-0.00002529,-0.00013109,-0.00004639,0.00001565,-0.00000759,-0.00007
 375,-0.00001711,-0.00027840,0.00011715,0.00081613,0.00009105,-0.000010
 99,-0.00009636,-0.00002657,0.00002295,-0.00000963,0.00395078,0.0011533
 0,0.00056879,0.00008002,-0.00005753,-0.00020757,-0.00006021,0.00003932
 ,0.00001661,-0.00000916,-0.00000916,-0.00000772,0.00005146,-0.00004739
 ,0.00000718,0.00000203,0.00000042,0.00000335,0.00000933,0.00001983,0.0
 0001110,-0.00000416,-0.00000824,-0.00000303,-0.00001956,-0.00000941,-0
 .00000227,0.19348087,-0.14748126,-0.21142396,-0.17501022,0.12867276,0.
 20029058,0.00017095,0.00041425,-0.00089426,0.00014305,0.00018463,-0.00
 029907,-0.00067020,0.00020220,0.00052338,0.00002963,-0.00008366,0.0000
 2822,-0.00062270,-0.00075245,0.00029915,-0.00070084,-0.00131651,-0.000
 76451,0.00020272,0.00107497,0.00006668,0.00002976,-0.00003306,0.000069
 84,0.00002404,0.00009126,-0.00014562,-0.00035622,-0.00128933,0.0007118
 1,-0.00061823,-0.00062941,-0.00035424,0.00021675,0.00109623,-0.0000297
 3,0.00001087,-0.00004359,-0.00003683,0.00508364,0.00260921,-0.00149113
 ,0.00298984,0.00094084,0.00237902,-0.00925489,0.00097640,-0.00294693,0
 .00027917,-0.00016369,0.00027625,-0.00043709,-0.00183484,0.00142647,-0
 .00002412,0.00033814,0.00003564,0.00052831,-0.00000638,0.00001357,-0.0
 0005617,0.00016221,0.00004581,0.00011994,0.00009924,-0.00012793,0.0066
 4878,-0.00563677,0.00524054,-0.00056261,0.00008745,-0.00038356,0.00012
 173,-0.00027249,-0.00009137,0.00001639,0.00001110,0.00003006,-0.000046
 56,-0.00005780,0.00008698,0.00002314,0.00001644,-0.00002245,-0.0002364
 5,-0.00030259,-0.00000724,0.00010974,0.00013398,0.00001204,0.00018150,
 0.00019194,-0.00002434,-0.15198751,0.14732384,-0.11861464,-0.01506712,
 0.01862707,-0.02207664,0.16372597,-0.00000233,-0.00058023,-0.00040894,
 -0.00020316,-0.00046818,-0.00055931,0.00046112,0.00045516,0.00027440,0
 .00006615,-0.00009322,-0.00008875,0.00025837,0.00070218,-0.00005369,-0
 .00041133,0.00100419,-0.00040432,-0.00014937,-0.00102602,-0.00051740,-
 0.00002084,0.00003473,0.00011206,0.00009715,0.00004583,-0.00015664,-0.
 00012074,-0.00056876,0.00018482,-0.00038918,-0.00026174,-0.00030956,0.
 00019014,0.00055046,0.00014359,-0.00002285,-0.00002340,-0.00003166,0.0
 0131469,0.00047168,0.00017374,0.00271937,-0.00221868,0.00143935,-0.001
 02592,0.00048836,-0.00084980,0.00031639,-0.00020033,0.00023936,-0.0005
 4670,0.00011422,0.00045758,0.00008810,0.00008785,0.00014680,0.00004001
 ,-0.00020966,0.00027100,0.00013202,0.00010501,0.00009158,0.00017534,0.
 00007678,-0.00012677,-0.00339692,-0.00871659,0.00677059,0.00025871,0.0
 0008845,-0.00017897,-0.00008023,-0.00007763,-0.00011534,0.00002972,0.0
 0002801,0.00003726,-0.00010053,-0.00002233,0.00010521,0.00002993,0.000
 02365,-0.00003761,-0.00016130,-0.00015181,-0.00000298,0.00005183,0.000
 06396,0.00000392,0.00018035,0.00008144,-0.00000485,0.15105200,-0.17283
 836,0.14398470,0.01144345,-0.01381768,0.01875977,-0.16226935,0.1968012
 2,-0.00118890,-0.00059481,0.00040910,-0.00082063,-0.00044898,-0.000530
 21,0.00167243,0.00014129,0.00007577,-0.00001125,0.00001278,-0.00002435
 ,0.00013527,-0.00004870,0.00006279,-0.00066818,-0.00049405,-0.00099724
 ,-0.00016487,-0.00006463,-0.00007163,0.00003492,-0.00003596,-0.0000190
 2,0.00000125,-0.00003941,-0.00000715,-0.00007628,0.00040764,-0.0002220
 2,0.00005437,0.00011510,-0.00002634,0.00008687,-0.00012972,0.00003996,
 -0.00002191,0.00002706,-0.00000957,0.00190671,0.00122178,-0.00040642,0
 .00073599,-0.00005379,-0.00168566,-0.00338212,0.00014519,-0.00162011,-
 0.00003584,0.00001093,0.00007684,0.00013472,-0.00035496,0.00097630,-0.
 00002188,0.00008999,-0.00012336,-0.00004454,0.00000179,0.00008918,-0.0
 0008177,-0.00000508,-0.00005961,0.00002348,-0.00003148,-0.00002126,0.0
 0174241,0.00441026,0.00064527,-0.00022156,-0.00005172,-0.00031399,0.00
 005842,-0.00005840,0.00003318,-0.00001342,-0.00001117,-0.00000445,-0.0
 0002514,0.00005696,-0.00001705,-0.00000097,0.00000101,0.00000173,-0.00
 000517,-0.00001283,0.00000021,0.00000525,0.00000609,0.00000681,0.00000
 096,0.00000974,-0.00002310,-0.15618210,0.18606985,-0.22058826,0.019335
 07,-0.02091384,0.01433744,0.13704684,-0.16935601,0.21002197,0.00005105
 ,0.00022643,0.00014646,0.00005449,0.00012181,0.00020969,-0.00008059,-0
 .00014878,-0.00015245,-0.00001483,0.00003230,0.00003367,-0.00169379,-0
 .00743758,0.00396033,-0.00014221,-0.00345104,-0.00113395,0.00328141,0.
 00381521,-0.00097434,-0.00018210,-0.00005635,-0.00003986,-0.00068543,0
 .00117468,-0.00013245,0.00035205,-0.00201433,0.00063817,-0.00078062,-0
 .00332968,-0.00225866,0.00136920,0.00240298,0.00034126,-0.00008598,-0.
 00001967,0.00011133,0.00019696,0.00025484,-0.00019564,0.00023681,0.000
 21363,-0.00011766,-0.00029913,-0.00020526,0.00011694,-0.00001927,0.000
 04059,-0.00003669,0.00015250,-0.00178499,-0.00074321,-0.00247490,0.003
 57558,0.00102306,-0.01103371,0.00307954,-0.00000624,-0.01134709,0.0083
 3549,-0.00811437,-0.00321515,0.00223622,0.00310110,-0.00166358,0.00076
 659,0.00041490,-0.00026336,0.00096269,-0.00010317,0.00581392,-0.001968
 22,0.00165328,-0.00051273,-0.00002369,-0.00021690,0.00208879,-0.000876
 99,-0.00027799,-0.00025150,-0.00005936,-0.00000583,0.00015657,-0.00006
 725,-0.00005074,0.00001251,0.00006622,0.00000650,-0.00011771,0.0000147
 6,0.00002169,0.00035029,-0.00000753,-0.00011535,-0.00005685,0.00023064
 ,0.00006939,-0.00012747,-0.00002228,-0.00001279,0.62906596,0.00030249,
 -0.00043452,-0.00045998,0.00018241,-0.00039951,-0.00034068,-0.00023320
 ,0.00025665,0.00035995,0.00004366,-0.00010825,-0.00015213,-0.00840351,
 -0.01017077,0.00763795,-0.00114371,-0.00186439,0.00006455,0.00222740,0
 .00163136,-0.00083192,-0.00065744,-0.00032530,0.00050014,0.00013094,0.
 00154004,-0.00105006,-0.00085713,0.00077371,-0.00105473,-0.00261647,-0
 .00146595,-0.00296780,0.00048153,-0.00078976,0.00035347,-0.00037966,-0
 .00010641,-0.00024390,0.00020759,-0.00050349,0.00043265,0.00007435,-0.
 00053603,0.00042371,-0.00017257,0.00035486,-0.00041615,0.00002734,-0.0
 0013722,0.00015624,-0.00253781,-0.00021722,0.00034733,0.00085224,0.000
 36660,0.00053522,0.00275665,-0.02363225,-0.00010120,0.00926863,-0.0022
 0569,0.00547092,0.00174195,0.00090349,-0.00158171,0.00176970,0.0014128
 4,0.00088638,0.00086481,-0.00291578,-0.00016161,-0.00017370,-0.0005288
 0,-0.00032014,0.00054881,-0.00000335,0.00045785,0.00086106,-0.00123135
 ,0.00017766,0.00031818,0.00004778,-0.00023646,-0.00079855,-0.00095930,
 0.00000778,0.00025564,0.00036468,0.00000503,0.00085044,0.00053756,-0.0
 0000837,-0.00059882,-0.00063967,-0.00004042,0.00027697,0.00025115,0.00
 005658,0.00017333,0.00024912,-0.00002389,0.12069966,0.09320265,-0.0000
 1541,0.00000579,0.00005659,0.00000855,-0.00002438,0.00010292,-0.000014
 80,0.00002155,0.00000011,-0.00000025,-0.00000646,-0.00001240,0.0038755
 5,0.00573330,-0.00071962,0.00015398,0.00265996,0.00076001,-0.00196696,
 -0.00235516,0.00127346,0.00002870,0.00006669,-0.00013855,0.00069165,-0
 .00098833,0.00071108,-0.00012226,-0.00132777,0.00054120,-0.00203344,-0
 .00303397,-0.00199503,0.00090252,0.00177206,0.00001975,-0.00012362,-0.
 00008492,-0.00005670,-0.00002267,-0.00002373,0.00011861,-0.00005485,0.
 00002785,0.00005111,0.00007366,-0.00003003,-0.00000402,-0.00000075,-0.
 00002257,0.00002071,-0.00043234,-0.00033665,-0.00124727,-0.00135928,0.
 00247747,0.00056181,0.00103078,-0.00591382,-0.00746627,-0.00669126,0.0
 0339395,-0.00095788,0.00290804,-0.00160349,-0.00151781,0.00062031,0.00
 014107,-0.00113651,0.00023438,-0.00115336,0.00060421,0.00310011,-0.001
 21707,0.00173923,-0.00007347,0.00004055,-0.00014911,-0.00152083,0.0011
 1702,-0.00025089,0.00013499,-0.00001753,-0.00004619,-0.00004780,-0.000
 12192,-0.00008660,0.00003593,0.00005826,0.00001435,0.00008436,0.000058
 68,0.00005761,-0.00008968,0.00007586,0.00015015,-0.00004945,-0.0001543
 2,-0.00009650,0.00003010,-0.00000915,-0.00002485,-0.00295146,0.0358403
 8,0.44384232,0.00000093,-0.00006395,-0.00008270,-0.00000524,-0.0000600
 7,-0.00002418,-0.00000354,0.00003262,0.00004416,0.00000791,-0.00001475
 ,-0.00002247,-0.00238617,-0.00005258,0.00034316,-0.00000192,0.00124667
 ,0.00080745,-0.00162288,-0.00266047,0.00044454,-0.00016917,-0.00007294
 ,0.00007642,0.00008130,-0.00003921,-0.00005399,-0.00029009,0.00057462,
 -0.00035673,-0.00055385,0.00054597,0.00014742,-0.00016816,-0.00090210,
 -0.00005903,-0.00005715,-0.00000794,-0.00008765,-0.00006813,-0.0001303
 4,0.00003871,-0.00012102,-0.00004699,0.00007439,0.00011637,0.00006343,
 -0.00003406,0.00000639,-0.00002080,0.00002063,-0.00000651,0.00026008,0
 .00020202,0.00044695,-0.00086400,-0.00017138,-0.00069433,0.00698329,0.
 00303791,0.00109605,-0.00058255,-0.00015848,0.00011445,-0.00016744,-0.
 00022220,0.00088779,-0.00022928,-0.00013908,-0.00018691,-0.00038588,0.
 00000925,-0.00094431,0.00088056,-0.00044699,0.00004174,0.00000506,0.00
 004997,-0.00008671,0.00000815,0.00011032,0.00001618,0.00001815,-0.0000
 0772,-0.00006386,-0.00002319,0.00001443,0.00001014,0.00000163,-0.00000
 197,0.00006501,0.00001607,-0.00000718,-0.00019944,-0.00000178,0.000037
 20,0.00004374,-0.00010474,-0.00002002,0.00007438,0.00002352,-0.0000006
 0,-0.32332146,-0.05571042,0.18293967,0.35600757,-0.00012838,0.00009034
 ,0.00017032,-0.00003987,0.00016044,0.00012136,0.00006363,-0.00006839,-
 0.00010004,-0.00001305,0.00003449,0.00004318,0.00171274,0.00350031,-0.
 00216809,0.00074454,0.00494075,0.00135503,-0.00485149,-0.00613476,0.00
 211445,0.00036956,0.00019083,-0.00032092,0.00017749,-0.00080876,0.0003
 8925,0.00010488,-0.00000584,0.00044725,0.00002378,0.00020158,0.0009377
 4,-0.00056064,-0.00013378,-0.00054689,0.00012883,-0.00000736,0.0000230
 8,-0.00013019,0.00010179,-0.00006125,-0.00023444,0.00014678,-0.0000681
 1,0.00023794,-0.00008203,0.00013475,-0.00000093,0.00003085,-0.00004376
 ,0.00031255,0.00038259,-0.00014018,0.00005369,-0.00052479,-0.00026399,
 0.00953885,-0.00123616,-0.00747149,0.00037911,-0.00109331,0.00102284,0
 .00088346,-0.00089930,-0.00064981,0.00082137,-0.00092789,-0.00130546,-
 0.00020306,-0.00048370,0.00051196,-0.00032218,0.00032694,0.00021534,0.
 00002946,0.00000114,-0.00010294,-0.00080223,0.00072306,-0.00009117,0.0
 0003819,-0.00001812,0.00004741,0.00023462,0.00030857,-0.00000173,-0.00
 008483,-0.00012219,-0.00000237,-0.00025282,-0.00017348,0.00000640,0.00
 004738,0.00038790,0.00016935,-0.00014827,-0.00036778,-0.00011920,0.000
 00494,-0.00011719,0.00000836,-0.05377472,-0.02211800,0.02236818,0.0549
 5033,0.02463865,-0.00003344,-0.00000184,-0.00001333,-0.00002804,0.0000
 0401,-0.00005480,0.00006128,0.00001080,0.00000677,0.00000206,-0.000001
 48,0.00000472,-0.00023632,-0.00045773,-0.00156002,-0.00010731,-0.00197
 154,-0.00053989,0.00166388,0.00241263,-0.00112609,0.00005845,0.0000272
 3,0.00007798,0.00012685,-0.00014910,-0.00001526,0.00003076,0.00099516,
 -0.00042680,0.00007372,0.00132845,0.00049110,-0.00075739,-0.00151957,-
 0.00008561,0.00001828,0.00000115,-0.00002079,0.00003446,0.00007771,-0.
 00002111,0.00007951,-0.00003124,-0.00009483,-0.00007133,-0.00000699,0.
 00001774,-0.00000221,0.00001373,-0.00000950,-0.00008443,0.00008480,0.0
 0001932,-0.00013785,-0.00004285,0.00009728,0.00306771,-0.00310316,0.00
 043378,-0.00023328,0.00100159,-0.00101024,0.00049527,-0.00021059,-0.00
 034851,-0.00027432,-0.00000892,0.00078405,0.00009523,0.00002286,-0.000
 18966,0.00004438,0.00017249,-0.00005506,-0.00004396,-0.00001351,-0.000
 02424,-0.00028297,0.00002829,0.00004824,0.00004279,0.00000577,-0.00000
 784,0.00001909,0.00002466,0.00000258,-0.00000538,-0.00000858,-0.000001
 33,-0.00002858,-0.00000763,0.00000474,0.00002839,-0.00007191,-0.000093
 27,0.00004124,0.00009991,0.00007872,-0.00001711,0.00001601,0.00001303,
 0.23905943,0.03024698,-0.20495074,-0.21327929,-0.02391654,0.19429833,-
 0.00001896,-0.00004442,-0.00004594,-0.00005547,-0.00002811,-0.00004950
 ,0.00003568,0.00003136,0.00002404,0.00000197,-0.00000513,0.00000034,0.
 00057097,0.00161480,-0.00036464,-0.00004103,0.00119488,0.00031295,-0.0
 0054850,-0.00136592,0.00028641,0.00005369,0.00001924,0.00000304,-0.000
 01182,-0.00043003,0.00000184,-0.00006359,0.00049671,-0.00011308,0.0002
 1885,0.00079736,0.00054955,-0.00025382,-0.00056100,-0.00012326,0.00003
 015,0.00000860,-0.00001549,-0.00018961,-0.00016950,-0.00004345,-0.0001
 4661,-0.00001553,-0.00001321,0.00022918,0.00009404,-0.00001302,0.00000
 136,0.00000333,0.00000633,0.00080117,0.00131516,0.00096340,0.00215053,
 -0.00344371,-0.00142792,0.00637306,-0.00389416,0.00072755,0.00060150,-
 0.00269059,0.00149350,-0.00021581,-0.00061698,-0.00055090,0.00030915,-
 0.00029897,-0.00014447,-0.00054218,0.00029286,-0.00021669,-0.00652943,
 0.00326630,-0.00188772,0.00007196,-0.00001096,0.00011872,-0.00066275,0
 .00044569,0.00030385,-0.00000008,0.00002234,0.00007037,0.00003993,0.00
 025100,0.00006893,-0.00005725,-0.00012863,-0.00001140,-0.00007967,-0.0
 0011686,-0.00004445,-0.00009091,0.00003441,0.00003181,0.00000925,-0.00
 008261,-0.00002589,0.00003788,-0.00000531,0.00000498,-0.28481304,-0.07
 063280,-0.17928269,-0.02806604,-0.00931028,-0.02941957,0.31085026,-0.0
 0011336,0.00020430,0.00018206,-0.00003424,0.00012861,0.00022387,0.0000
 6005,-0.00010586,-0.00014432,-0.00001540,0.00004231,0.00004722,0.00070
 226,-0.00027837,0.00078145,0.00018875,0.00013450,-0.00010357,-0.000149
 28,-0.00029461,0.00040124,0.00000657,0.00001196,-0.00013042,-0.0000588
 5,-0.00034403,0.00061937,0.00025676,-0.00079583,0.00041613,-0.00035969
 ,-0.00112828,-0.00057274,0.00029455,0.00100276,-0.00007776,-0.00000763
 ,-0.00004258,0.00004540,0.00009124,0.00025630,-0.00014068,0.00002709,0
 .00019542,-0.00009972,-0.00010504,-0.00019010,0.00014276,-0.00001179,0
 .00004372,-0.00004774,0.00015483,-0.00103212,-0.00114146,-0.00243779,0
 .00346662,0.00077459,-0.00590959,-0.00786583,-0.00878741,-0.00472069,0
 .00144656,-0.00278757,-0.00019417,-0.00025016,0.00076112,-0.00035210,0
 .00000457,-0.00023555,0.00013235,0.00002859,0.00037205,0.00546906,-0.0
 0221198,0.00211275,-0.00049663,0.00000467,-0.00034699,0.00018081,0.000
 49128,-0.00048528,-0.00012517,-0.00006737,0.00005309,0.00035474,0.0002
 6024,-0.00007104,-0.00006296,-0.00006622,0.00000740,-0.00031963,-0.000
 17397,0.00004803,0.00023007,0.00021171,0.00000020,-0.00009986,-0.00005
 108,-0.00000681,-0.00006776,-0.00008049,-0.00000640,-0.07300215,-0.030
 59950,-0.05743398,-0.00346875,-0.00084421,-0.00505108,0.08396340,0.038
 48847,0.00003246,0.00002041,-0.00001329,0.00002260,0.00003728,0.000004
 50,-0.00004770,-0.00003722,-0.00002394,-0.00000194,0.00000064,0.000003
 21,-0.00027013,0.00081112,-0.00097000,0.00014440,-0.00001310,0.0000622
 0,-0.00011931,0.00011262,-0.00005345,0.00005080,0.00001379,-0.00002206
 ,-0.00047647,0.00080347,-0.00049527,-0.00000947,-0.00014439,-0.0000162
 8,-0.00029357,-0.00033775,-0.00024810,0.00015282,0.00008671,0.00004021
 ,-0.00003167,-0.00001194,-0.00000897,-0.00007016,-0.00005643,-0.000129
 24,-0.00006876,0.00005436,-0.00006806,0.00008609,0.00001236,0.00004248
 ,-0.00000622,0.00001805,-0.00000600,0.00030611,0.00019792,0.00091673,0
 .00099245,-0.00191580,-0.00043865,-0.00100387,-0.00508350,0.00014148,0
 .00078344,-0.00042224,-0.00163267,-0.00070609,0.00107799,0.00041047,-0
 .00005328,0.00000925,0.00007872,-0.00015818,0.00016810,-0.00029378,-0.
 00285391,0.00154482,-0.00149025,-0.00004591,0.00000707,0.00007674,0.00
 133694,-0.00096853,0.00006078,-0.00001492,-0.00000524,-0.00002153,-0.0
 0001495,0.00000454,0.00006334,-0.00000979,-0.00001086,-0.00001199,0.00
 000576,0.00000092,-0.00004554,0.00000875,0.00003469,-0.00002332,-0.000
 00785,-0.00000897,0.00001236,0.00000521,0.,0.00000606,-0.23326746,-0.0
 7396963,-0.22976830,0.02677808,0.00728768,0.01427052,0.20882568,0.0706
 8179,0.21959086\\0.00000739,-0.00000256,0.00000436,-0.00000418,-0.0000
 0035,0.00000849,0.00000680,-0.00000556,0.00000916,0.00000211,-0.000002
 80,0.00000368,-0.00000307,-0.00000046,0.00000041,-0.00000171,-0.000004
 31,0.00000220,-0.00000032,0.00000153,-0.00000256,-0.00000249,0.0000001
 3,-0.00000156,-0.00000090,0.00000350,0.00000284,0.00000565,-0.00000779
 ,-0.00000177,-0.00000379,0.00000232,-0.00000245,0.00000141,-0.00000784
 ,-0.00000228,0.00000303,-0.00000408,-0.00000282,0.00000593,0.00000374,
 0.00000786,0.00000593,0.00000302,0.00000424,-0.00000352,0.00000257,0.0
 0000751,0.00000103,0.00000247,0.00000292,0.00000505,0.00000355,0.00001
 543,0.00000175,0.00000504,0.00000012,-0.00000235,-0.00000563,-0.000017
 13,-0.00000250,0.00000336,-0.00000557,-0.00000316,-0.00000977,-0.00000
 881,-0.00001846,0.00001373,-0.00000513,0.00001203,-0.00000949,-0.00000
 378,-0.00000591,0.00000527,0.00000266,-0.00000032,0.00000213,-0.000001
 28,0.00000113,0.00000236,0.00000426,-0.00000180,0.,-0.00000139,-0.0000
 0321,0.00000397,0.00002008,-0.00000343,0.00000528,0.00000091,0.0000034
 9,0.00000682,-0.00004438,0.00000515,-0.00000865,0.00000415,-0.00000327
 ,0.00000059,-0.00000278,0.00000319,0.00000103,0.00000646,-0.00000815,-
 0.00000184,-0.00000319,0.00000158,0.00000031,0.00000057,-0.00000010,-0
 .00000159,-0.00000144\\\@
 The archive entry for this job was punched.


 "THE ACADEMIC HIERARCHY"


 THE PRESIDENT:
   LEAPS TALL BUILDINGS IN A SINGLE BOUND,
     IS MORE POWERFUL THAN A LOCOMOTIVE,
       IS FASTER THAN A SPEEDING BULLET,
         WALKS ON WATER,
           GIVES POLICY TO GOD.

 THE VICE PRESIDENT FOR ACADEMIC AFFAIRS:
   LEAPS SHORT BUILDINGS IN A SINGLE BOUND,
     IS MORE POWERFUL THAN A SWITCH ENGINE,
       IS JUST AS FAST AS A SPEEDING BULLET,
         WALKS ON WATER IF SEA IS CALM,
           TALKS WITH GOD.

 PROFESSOR:
   LEAPS SHORT BUILDINGS WITH A RUNNING START AND FAVORABLE WINDS,
     IS ALMOST AS POWERFUL AS A SWITCH ENGINE,
       CAN FIRE A SPEEDING BULLET,
         WALKS ON WATER IN AN INDOOR SWIMMING POOL,
          TALKS WITH GOD IF SPECIAL REQUEST IS APPROVED.

 ASSOCIATE PROFESSOR:
   BARELY CLEARS A QUONSET HUT,
     LOSES TUG OF WAR WITH LOCOMOTIVE,
       MISFIRES FREQUENTLY,
         SWIMS WELL,
           IS OCCASIONALLY ADDRESSED BY GOD.

 ASSISTANT PROFESSOR:
   MAKES HIGH MARKS ON WALLS WHEN TRYING TO LEAP TALL BUILDINGS,
     IS RUN OVER BY LOCOMOTIVES,
       CAN SOMETIMES HANDLE A GUN WITHOUT INFLICTING SELF INJURY,
         DOG PADDLES,
           TALKS TO ANIMALS.

 GRADUATE STUDENT:
   RUNS INTO BUILDINGS,
     RECOGNIZES LOCOMOTIVES TWO OUT OF THREE TIMES,
       IS NOT ISSUED AMMUNITION,
         CAN STAY AFLOAT WITH A LIFE JACKET,
           TALKS TO WALLS.

 UNDERGRADUATE AND WORK STUDY STUDENT:
   FALLS OVER DOORSTEP WHEN TRYING TO ENTER BUILDINGS,
     SAYS, "LOOK AT THE CHOO-CHOO,"
       WETS HIMSELF WITH A WATER PISTOL,
        PLAYS IN MUD PUDDLES,
          MUMBLES TO HIMSELF.

 DEPARTMENT SECRETARY:
   LIFTS TALL BUILDINGS AND WALKS UNDER THEM,
     KICKS LOCOMOTIVES OFF THE TRACKS,
       CATCHES SPEEDING BULLETS IN HER TEETH AND EATS THEM,
         FREEZES WATER WITH A SINGLE GLANCE,
           IS GOD.
 Job cpu time:       1 days 18 hours 23 minutes 16.1 seconds.
 Elapsed time:       0 days 21 hours 22 minutes  5.0 seconds.
 File lengths (MBytes):  RWF=   6221 Int=      0 D2E=      0 Chk=    156 Scr=      1
 Normal termination of Gaussian 16 at Thu Feb  2 13:39:10 2023.
