 Entering Gaussian System, Link 0=g16
 Input=FeFeFe-B-1xH2O-broken-V03-opt.gjf
 Output=FeFeFe-B-1xH2O-broken-V03-opt.log
 Initial command:
 /software/commercial/gaussian/g16/AVX2/g16/l1.exe "/scratch1/svicchi/G09-397431.pbs02/Gau-3912984.inp" -scrdir="/scratch1/svicchi/G09-397431.pbs02/"
 Entering Link 1 = /software/commercial/gaussian/g16/AVX2/g16/l1.exe PID=   3912985.
  
 Copyright (c) 1988-2021, Gaussian, Inc.  All Rights Reserved.
  
 This is part of the Gaussian(R) 16 program.  It is based on
 the Gaussian(R) 09 system (copyright 2009, Gaussian, Inc.),
 the Gaussian(R) 03 system (copyright 2003, Gaussian, Inc.),
 the Gaussian(R) 98 system (copyright 1998, Gaussian, Inc.),
 the Gaussian(R) 94 system (copyright 1995, Gaussian, Inc.),
 the Gaussian 92(TM) system (copyright 1992, Gaussian, Inc.),
 the Gaussian 90(TM) system (copyright 1990, Gaussian, Inc.),
 the Gaussian 88(TM) system (copyright 1988, Gaussian, Inc.),
 the Gaussian 86(TM) system (copyright 1986, Carnegie Mellon
 University), and the Gaussian 82(TM) system (copyright 1983,
 Carnegie Mellon University). Gaussian is a federally registered
 trademark of Gaussian, Inc.
  
 This software contains proprietary and confidential information,
 including trade secrets, belonging to Gaussian, Inc.
  
 This software is provided under written license and may be
 used, copied, transmitted, or stored only in accord with that
 written license.
  
 The following legend is applicable only to US Government
 contracts under FAR:
  
                    RESTRICTED RIGHTS LEGEND
  
 Use, reproduction and disclosure by the US Government is
 subject to restrictions as set forth in subparagraphs (a)
 and (c) of the Commercial Computer Software - Restricted
 Rights clause in FAR 52.227-19.
  
 Gaussian, Inc.
 340 Quinnipiac St., Bldg. 40, Wallingford CT 06492
  
  
 ---------------------------------------------------------------
 Warning -- This program may not be used in any manner that
 competes with the business of Gaussian, Inc. or will provide
 assistance to any competitor of Gaussian, Inc.  The licensee
 of this program is prohibited from giving any competitor of
 Gaussian, Inc. access to this program.  By using this program,
 the user acknowledges that Gaussian, Inc. is engaged in the
 business of creating and licensing software in the field of
 computational chemistry and represents and warrants to the
 licensee that it is not a competitor of Gaussian, Inc. and that
 it will not use this program in any manner prohibited above.
 ---------------------------------------------------------------
  

 Cite this work as:
 Gaussian 16, Revision C.02,
 M. J. Frisch, G. W. Trucks, H. B. Schlegel, G. E. Scuseria, 
 M. A. Robb, J. R. Cheeseman, G. Scalmani, V. Barone, 
 G. A. Petersson, H. Nakatsuji, X. Li, M. Caricato, A. V. Marenich, 
 J. Bloino, B. G. Janesko, R. Gomperts, B. Mennucci, H. P. Hratchian, 
 J. V. Ortiz, A. F. Izmaylov, J. L. Sonnenberg, D. Williams-Young, 
 F. Ding, F. Lipparini, F. Egidi, J. Goings, B. Peng, A. Petrone, 
 T. Henderson, D. Ranasinghe, V. G. Zakrzewski, J. Gao, N. Rega, 
 G. Zheng, W. Liang, M. Hada, M. Ehara, K. Toyota, R. Fukuda, 
 J. Hasegawa, M. Ishida, T. Nakajima, Y. Honda, O. Kitao, H. Nakai, 
 T. Vreven, K. Throssell, J. A. Montgomery, Jr., J. E. Peralta, 
 F. Ogliaro, M. J. Bearpark, J. J. Heyd, E. N. Brothers, K. N. Kudin, 
 V. N. Staroverov, T. A. Keith, R. Kobayashi, J. Normand, 
 K. Raghavachari, A. P. Rendell, J. C. Burant, S. S. Iyengar, 
 J. Tomasi, M. Cossi, J. M. Millam, M. Klene, C. Adamo, R. Cammi, 
 J. W. Ochterski, R. L. Martin, K. Morokuma, O. Farkas, 
 J. B. Foresman, and D. J. Fox, Gaussian, Inc., Wallingford CT, 2019.
 
 ******************************************
 Gaussian 16:  ES64L-G16RevC.02  7-Dec-2021
                 3-Apr-2023 
 ******************************************
 %NProcShared=2
 Will use up to    2 processors via shared memory.
 %mem=110gb
 %chk=/scratch1/svicchi/G09-397431.pbs02/00-opt/FeFeFe-B-1xH2O-broken-V03-opt.chk
 ----------------------------------------------------------------------
 # SP Geom=AllCheckpoint um06l/Def2TZVP int=grid=ultrafine scf=(xqc,int
 rep,maxconventionalcycle=1000) pop=(CM5) nosymm guess=read
 ----------------------------------------------------------------------
 1/29=7,38=1,172=1/1;
 2/12=2,15=1,40=1/2;
 3/5=44,7=101,11=2,14=-4,25=1,30=1,74=-53,75=-5,116=2/1,2,3;
 4/5=1/1;
 5/5=2,8=3,13=1,17=20,38=6,85=1000/2,8;
 6/7=2,8=2,9=2,10=2,28=1,79=1/1;
 99/5=1,9=1/99;
 Structure from the checkpoint file:  "/scratch1/svicchi/G09-397431.pbs02/00-opt/FeFeFe-B-1xH2O-broken-V03-opt.chk"
 --------------
 FeFeFe-B-0xH2O
 --------------
 Charge =  0 Multiplicity = 5
 Z-Matrix found in chk file.
 O,0,1.719299,-2.121416,-1.58716
 O,0,-0.476982,-2.495739,-1.214444
 C,0,0.60347,-2.691674,-1.787175
 H,0,0.618079,-3.461158,-2.578246
 O,0,1.890722,2.147768,1.159944
 O,0,3.038791,0.210968,1.172216
 C,0,2.821748,1.395867,1.523514
 H,0,3.545289,1.819699,2.240758
 O,0,-2.147334,-0.106827,-1.496866
 O,0,2.700282,0.475697,-1.566819
 O,0,1.361445,2.282339,-1.619333
 C,0,2.316544,1.573004,-2.021967
 H,0,2.885238,1.969427,-2.880717
 O,0,-0.561258,-2.092988,1.707679
 O,0,1.641641,-2.191137,1.219534
 C,0,0.614516,-2.444745,1.906501
 H,0,0.788877,-3.066072,2.801842
 Fe,0,-1.413309,-1.139251,0.109271
 O,0,-2.200113,0.271216,1.46108
 Fe,0,0.12895,1.914114,0.013878
 O,0,-0.904099,2.104849,1.697957
 O,0,-1.463991,2.017276,-1.149819
 Fe,0,1.890613,-0.775712,-0.159116
 O,0,0.227856,0.017067,-0.01878
 C,0,-1.839186,1.314437,2.023374
 H,0,-2.401164,1.612984,2.925989
 C,0,-2.107622,1.108608,-1.747308
 H,0,-2.717752,1.449683,-2.600897
 N,0,-5.545114,-0.10034,0.508588
 N,0,-4.982586,0.627297,-0.085807
 O,0,-2.746357,-2.050465,0.200371
 O,0,0.260095,4.095051,0.066221
 H,0,0.863019,4.302013,-0.66014
 H,0,0.748892,4.292809,0.875454
 Recover connectivity data from disk.
                          Input orientation:                          
 ---------------------------------------------------------------------
 Center     Atomic      Atomic             Coordinates (Angstroms)
 Number     Number       Type             X           Y           Z
 ---------------------------------------------------------------------
      1          8           0        1.719299   -2.121416   -1.587160
      2          8           0       -0.476982   -2.495739   -1.214444
      3          6           0        0.603470   -2.691674   -1.787175
      4          1           0        0.618079   -3.461158   -2.578246
      5          8           0        1.890722    2.147768    1.159944
      6          8           0        3.038791    0.210968    1.172216
      7          6           0        2.821748    1.395867    1.523514
      8          1           0        3.545289    1.819699    2.240758
      9          8           0       -2.147334   -0.106827   -1.496866
     10          8           0        2.700282    0.475697   -1.566819
     11          8           0        1.361445    2.282339   -1.619333
     12          6           0        2.316544    1.573004   -2.021967
     13          1           0        2.885238    1.969427   -2.880717
     14          8           0       -0.561258   -2.092988    1.707679
     15          8           0        1.641641   -2.191137    1.219534
     16          6           0        0.614516   -2.444745    1.906501
     17          1           0        0.788877   -3.066072    2.801842
     18         26           0       -1.413309   -1.139251    0.109271
     19          8           0       -2.200113    0.271216    1.461080
     20         26           0        0.128950    1.914114    0.013878
     21          8           0       -0.904099    2.104849    1.697957
     22          8           0       -1.463991    2.017276   -1.149819
     23         26           0        1.890613   -0.775712   -0.159116
     24          8           0        0.227856    0.017067   -0.018780
     25          6           0       -1.839186    1.314437    2.023374
     26          1           0       -2.401164    1.612984    2.925989
     27          6           0       -2.107622    1.108608   -1.747308
     28          1           0       -2.717752    1.449683   -2.600897
     29          7           0       -5.545114   -0.100340    0.508588
     30          7           0       -4.982586    0.627297   -0.085807
     31          8           0       -2.746357   -2.050465    0.200371
     32          8           0        0.260095    4.095051    0.066221
     33          1           0        0.863019    4.302013   -0.660140
     34          1           0        0.748892    4.292809    0.875454
 ---------------------------------------------------------------------
                    Distance matrix (angstroms):
                    1          2          3          4          5
     1  O    0.000000
     2  O    2.258912   0.000000
     3  C    1.268966   1.238462   0.000000
     4  H    1.997460   1.997786   1.103681   0.000000
     5  O    5.079557   5.727643   5.810570   6.859573   0.000000
     6  O    3.846457   5.038161   4.807714   5.780166   2.251534
     7  C    4.823170   5.789873   5.708714   6.728394   1.250739
     8  H    5.789610   6.836672   6.725402   7.725206   2.003342
     9  O    4.360914   2.928607   3.785847   4.479780   5.333642
    10  O    2.776281   4.364471   3.804920   4.566988   3.299461
    11  O    4.418388   5.135541   5.034233   5.870253   2.832424
    12  C    3.767559   5.001055   4.601872   5.342005   3.261324
    13  H    4.446088   5.832555   5.303599   5.892601   4.165070
    14  O    4.007208   2.950951   3.732160   4.651008   4.929121
    15  O    2.808634   3.241234   3.220037   4.133251   4.346457
    16  C    3.678417   3.306700   3.701937   4.598485   4.824648
    17  H    4.584910   4.249498   4.607996   5.397278   5.576201
    18  Fe   3.695370   2.113998   3.173944   4.091520   4.777555
    19  O    5.511646   4.217066   5.214399   6.179723   4.510772
    20  Fe   4.623639   4.617654   4.968123   5.987646   2.114687
    21  O    5.961168   5.461677   6.117642   7.182156   2.846458
    22  O    5.239597   4.620137   5.182164   6.032301   4.075062
    23  Fe   1.969664   3.110903   2.824575   3.831860   3.207281
    24  O    3.042586   2.870645   3.256622   4.336034   2.948627
    25  C    6.124039   5.182326   6.044483   7.072437   3.918184
    26  H    7.161876   6.142253   7.054915   8.072134   4.671744
    27  C    5.010392   3.991773   4.668378   5.385412   5.051606
    28  H    5.785139   4.744434   5.370614   5.936720   5.989097
    29  N    7.826149   5.864532   7.056247   7.668676   7.795506
    30  N    7.397618   5.597110   6.716714   7.368525   7.148852
    31  O    4.810653   2.711094   3.947509   4.585869   6.328384
    32  O    6.596014   6.754398   7.043623   8.013592   2.765336
    33  H    6.546222   6.950704   7.088669   8.000372   3.001608
    34  H    6.938908   7.207970   7.476212   8.489356   2.446612
                    6          7          8          9         10
     6  O    0.000000
     7  C    1.254792   0.000000
     8  H    1.996581   1.103442   0.000000
     9  O    5.841308   6.006044   7.077238   0.000000
    10  O    2.772541   3.226705   4.125290   4.882992   0.000000
    11  O    3.859639   3.577122   4.459093   4.246721   2.249266
    12  C    3.546771   3.585672   4.443140   4.798309   1.248398
    13  H    4.420636   4.441875   5.166003   5.617175   1.997940
    14  O    4.307585   4.863204   5.697106   4.090181   5.287544
    15  O    2.779276   3.788358   4.555610   5.106810   3.999561
    16  C    3.670027   4.446218   5.185233   4.967553   4.994332
    17  H    4.296136   5.067108   5.637675   5.988101   5.939932
    18  Fe   4.772226   5.134454   6.155186   2.045573   4.726411
    19  O    5.247208   5.146632   6.001278   2.982473   5.764014
    20  Fe   3.565057   3.130294   4.079127   3.398238   3.343560
    21  O    4.405629   3.796712   4.491436   4.079711   5.128787
    22  O    5.378628   5.089245   6.052102   2.258144   4.459992
    23  Fe   2.016010   2.900692   3.903012   4.306042   2.050175
    24  O    3.058991   3.317836   4.400040   2.800288   2.952906
    25  C    5.073142   4.688368   5.412496   3.808810   5.848054
    26  H    5.885107   5.412290   5.989372   4.752244   6.892278
    27  C    5.984559   5.922794   6.954547   1.241604   4.852741
    28  H    6.993467   6.906499   7.924911   1.991729   5.601166
    29  N    8.615146   8.559970   9.451052   3.945478   8.522071
    30  N    8.130095   8.005513   8.919606   3.250951   7.825780
    31  O    6.287010   6.680696   7.663299   2.648994   6.258621
    32  O    4.902089   3.996419   4.549543   5.088687   4.660585
    33  H    4.982787   4.129243   4.666012   5.403721   4.340311
    34  H    4.689683   3.620633   3.974942   5.776922   4.933859
                   11         12         13         14         15
    11  O    0.000000
    12  C    1.255979   0.000000
    13  H    2.002735   1.103637   0.000000
    14  O    5.823168   5.969213   7.030998   0.000000
    15  O    5.305626   5.013141   5.972343   2.258469   0.000000
    16  C    5.944302   5.871292   6.896271   1.243265   1.261438
    17  H    6.962767   6.864687   7.876703   1.991720   1.999104
    18  Fe   4.732294   5.080384   6.089451   2.047074   3.416412
    19  O    5.120376   5.850338   6.898979   2.887234   4.569530
    20  Fe   2.078945   3.007755   3.997357   4.404795   4.538163
    21  O    4.021020   4.949064   5.944886   4.211825   5.016490
    22  O    2.876420   3.905184   4.681249   5.086698   5.741909
    23  Fe   3.429858   3.027887   3.991513   3.351389   1.991505
    24  O    2.996373   3.285775   4.366242   2.838255   2.899720
    25  C    4.944713   5.805319   6.841002   3.652849   5.005134
    26  H    5.938452   6.836712   7.860721   4.313208   5.807547
    27  C    3.664485   4.456944   5.191751   4.957660   5.809255
    28  H    4.277456   5.068975   5.633998   5.980369   6.845113
    29  N    7.609584   8.426711   9.318914   5.499753   7.518399
    30  N    6.733320   7.610544   8.456683   5.492239   7.316274
    31  O    6.241678   6.610694   7.574133   2.654890   4.506995
    32  O    2.709241   3.866553   4.482644   6.454520   6.538728
    33  H    2.290756   3.378579   3.802800   6.966432   6.804441
    34  H    3.262081   4.271993   4.906210   6.571719   6.554155
                   16         17         18         19         20
    16  C    0.000000
    17  H    1.103669   0.000000
    18  Fe   3.007727   3.976456   0.000000
    19  O    3.936620   4.676451   2.106149   0.000000
    20  Fe   4.776761   5.745476   3.422090   3.196567   0.000000
    21  O    4.800884   5.551860   3.647931   2.257869   1.984866
    22  O    5.794041   6.821398   3.398756   3.226049   1.975423
    23  Fe   2.946331   3.902159   3.334680   4.522735   3.220023
    24  O    3.149084   4.216207   2.011689   2.854752   1.899904
    25  C    4.490630   5.167358   3.140979   1.238851   2.875977
    26  H    5.157407   5.664392   4.060118   1.996678   3.869438
    27  C    5.778120   6.820002   2.996970   3.317157   2.958525
    28  H    6.825483   7.866262   3.968521   4.261032   3.893129
    29  N    6.737317   7.360300   4.279089   3.497760   6.041338
    30  N    6.688369   7.435676   3.987291   3.203406   5.271967
    31  O    3.789697   4.505218   1.617290   2.697772   4.901026
    32  O    6.803027   7.684069   5.495457   4.756046   2.185503
    33  H    7.222752   8.141222   5.948194   5.489051   2.587512
    34  H    6.817312   7.606951   5.896560   5.021235   2.604771
                   21         22         23         24         25
    21  O    0.000000
    22  O    2.903614   0.000000
    23  Fe   4.422303   4.476119   0.000000
    24  O    2.930417   2.853495   1.847418   0.000000
    25  C    1.266900   3.271683   4.800353   3.182173   0.000000
    26  H    1.997798   4.201661   5.800266   4.257976   1.104384
    27  C    3.782964   1.263698   4.696690   3.103825   3.785824
    28  H    4.711552   1.999926   5.670247   4.170890   4.708933
    29  N    5.274133   4.887758   7.496132   5.798197   4.246183
    30  N    4.690312   3.929971   7.015317   5.246483   3.847307
    31  O    4.785741   4.473700   4.822418   3.628865   3.933048
    32  O    2.824679   2.961144   5.141371   4.078997   3.996154
    33  H    3.675712   3.297694   5.204831   4.378988   4.840327
    34  H    2.862876   3.765187   5.297525   4.399216   4.109327
                   26         27         28         29         30
    26  H    0.000000
    27  C    4.709593   0.000000
    28  H    5.538354   1.103270   0.000000
    29  N    4.320154   4.285671   4.479447   0.000000
    30  N    4.087326   3.355244   3.483026   1.095079   0.000000
    31  O    4.579193   3.765791   4.483186   3.425059   3.500432
    32  O    4.628307   4.220641   4.793648   7.176172   6.287618
    33  H    5.544916   4.494939   4.972348   7.861985   6.928528
    34  H    4.616168   5.017737   5.673271   7.684326   6.870942
                   31         32         33         34
    31  O    0.000000
    32  O    6.842815   0.000000
    33  H    7.356769   0.966411   0.000000
    34  H    7.273900   0.965862   1.539857   0.000000
 Symmetry turned off by external request.
 Stoichiometry    C6H8Fe3N2O15(5)
 Framework group  C1[X(C6H8Fe3N2O15)]
 Deg. of freedom    96
 Full point group                 C1      NOp   1
 Rotational constants (GHZ):           0.2242078           0.1765764           0.1349547
 Standard basis: def2TZVP (5D, 7F)
   896 basis functions,  1543 primitive gaussians,  1032 cartesian basis functions
   130 alpha electrons      126 beta electrons
       nuclear repulsion energy      4757.6078464805 Hartrees.
 NAtoms=   34 NActive=   34 NUniq=   34 SFac= 1.00D+00 NAtFMM=   60 NAOKFM=F Big=F
 Integral buffers will be    131072 words long.
 Raffenetti 2 integral format.
 Two-electron integral symmetry is turned off.
 One-electron integrals computed using PRISM.
   1 Symmetry operations used in ECPInt.
 ECPInt:  NShTT=   54615 NPrTT=  190743 LenC2=   46285 LenP2D=  104760.
 LDataN:  DoStor=T MaxTD1= 6 Len=  172
 NBasis=   896 RedAO= T EigKep=  2.03D-04  NBF=   896
 NBsUse=   896 1.00D-06 EigRej= -1.00D+00 NBFU=   896
 Initial guess from the checkpoint file:  "/scratch1/svicchi/G09-397431.pbs02/00-opt/FeFeFe-B-1xH2O-broken-V03-opt.chk"
 B after Tr=     0.000000    0.000000    0.000000
         Rot=    1.000000    0.000000    0.000000    0.000000 Ang=   0.00 deg.
 Initial guess <Sx>= 0.0000 <Sy>= 0.0000 <Sz>= 2.0000 <S**2>=11.0043 S= 2.8547
 Requested convergence on RMS density matrix=1.00D-08 within1000 cycles.
 Requested convergence on MAX density matrix=1.00D-06.
 Requested convergence on             energy=1.00D-06.
 No special actions if energy rises.
 EnCoef did     2 forward-backward iterations
 EnCoef did     4 forward-backward iterations
 EnCoef did   100 forward-backward iterations
 EnCoef did     4 forward-backward iterations
 EnCoef did   100 forward-backward iterations
 EnCoef did     2 forward-backward iterations
 EnCoef did     4 forward-backward iterations
 EnCoef did     3 forward-backward iterations
 EnCoef did     6 forward-backward iterations
 EnCoef did     6 forward-backward iterations
 EnCoef did     5 forward-backward iterations
 Restarting incremental Fock formation.
 SCF Done:  E(UM06L) =  -5263.29812916     A.U. after   30 cycles
            NFock= 30  Conv=0.38D-08     -V/T= 2.0017
 <Sx>= 0.0000 <Sy>= 0.0000 <Sz>= 2.0000 <S**2>=10.8903 S= 2.8377
 <L.S>=  0.00000000000    
 Annihilation of the first spin contaminant:
 S**2 before annihilation    10.8903,   after    20.5222
 QCSCF skips out because SCF is already converged.

 **********************************************************************

            Population analysis using the SCF Density.

 **********************************************************************

 Alpha  occ. eigenvalues -- -255.65724-255.65158-255.63311 -30.10086 -30.07326
 Alpha  occ. eigenvalues --  -29.99261 -25.87179 -25.87144 -25.87107 -25.84822
 Alpha  occ. eigenvalues --  -25.84776 -25.84413 -25.79432 -25.79415 -25.79383
 Alpha  occ. eigenvalues --  -19.03495 -18.99766 -18.99501 -18.99362 -18.99283
 Alpha  occ. eigenvalues --  -18.98934 -18.98879 -18.98855 -18.98762 -18.98709
 Alpha  occ. eigenvalues --  -18.98600 -18.98437 -18.97947 -18.97812 -18.97465
 Alpha  occ. eigenvalues --  -14.24676 -14.24533 -10.19490 -10.19441 -10.18575
 Alpha  occ. eigenvalues --  -10.18316 -10.18206 -10.18099  -3.66761  -3.61192
 Alpha  occ. eigenvalues --   -3.42803  -2.40823  -2.40740  -2.40682  -2.36252
 Alpha  occ. eigenvalues --   -2.36056  -2.33912  -2.17309  -2.17159  -2.17076
 Alpha  occ. eigenvalues --   -1.08184  -1.07638  -1.07173  -1.06938  -1.06670
 Alpha  occ. eigenvalues --   -1.06390  -1.05595  -1.05462  -1.00193  -0.99796
 Alpha  occ. eigenvalues --   -0.99434  -0.99126  -0.98973  -0.98622  -0.93829
 Alpha  occ. eigenvalues --   -0.89341  -0.60470  -0.59400  -0.59010  -0.58745
 Alpha  occ. eigenvalues --   -0.58447  -0.58143  -0.55748  -0.50323  -0.50312
 Alpha  occ. eigenvalues --   -0.49728  -0.49045  -0.48937  -0.48877  -0.48276
 Alpha  occ. eigenvalues --   -0.47797  -0.47606  -0.47466  -0.47063  -0.46840
 Alpha  occ. eigenvalues --   -0.46685  -0.45075  -0.44417  -0.43509  -0.43189
 Alpha  occ. eigenvalues --   -0.42864  -0.42596  -0.41835  -0.41659  -0.41446
 Alpha  occ. eigenvalues --   -0.41264  -0.41000  -0.39692  -0.39557  -0.38686
 Alpha  occ. eigenvalues --   -0.38399  -0.38213  -0.37969  -0.36323  -0.36263
 Alpha  occ. eigenvalues --   -0.35775  -0.35317  -0.34051  -0.33786  -0.32159
 Alpha  occ. eigenvalues --   -0.31826  -0.31574  -0.30578  -0.30254  -0.29867
 Alpha  occ. eigenvalues --   -0.29785  -0.29625  -0.29324  -0.29282  -0.28859
 Alpha  occ. eigenvalues --   -0.28609  -0.28312  -0.28221  -0.27539  -0.26394
 Alpha  occ. eigenvalues --   -0.25903  -0.24756  -0.23910  -0.23826  -0.22992
 Alpha virt. eigenvalues --   -0.17745  -0.17604  -0.17235  -0.15010  -0.12028
 Alpha virt. eigenvalues --   -0.11487  -0.04787  -0.04113  -0.03476  -0.03419
 Alpha virt. eigenvalues --   -0.03410  -0.02976  -0.02867  -0.02601   0.00676
 Alpha virt. eigenvalues --    0.03018   0.06520   0.06828   0.07151   0.08079
 Alpha virt. eigenvalues --    0.08301   0.08309   0.08682   0.09048   0.10622
 Alpha virt. eigenvalues --    0.11123   0.12349   0.14004   0.14506   0.16328
 Alpha virt. eigenvalues --    0.16470   0.16926   0.17351   0.17916   0.18944
 Alpha virt. eigenvalues --    0.20263   0.21101   0.21483   0.22019   0.22150
 Alpha virt. eigenvalues --    0.23071   0.23331   0.23872   0.24384   0.24806
 Alpha virt. eigenvalues --    0.24963   0.25791   0.26562   0.27199   0.27278
 Alpha virt. eigenvalues --    0.27718   0.28444   0.28684   0.29587   0.29774
 Alpha virt. eigenvalues --    0.30435   0.30586   0.31143   0.31614   0.31967
 Alpha virt. eigenvalues --    0.32416   0.32932   0.33069   0.33252   0.33919
 Alpha virt. eigenvalues --    0.34498   0.34782   0.35284   0.35973   0.36363
 Alpha virt. eigenvalues --    0.36926   0.37068   0.37435   0.38232   0.38597
 Alpha virt. eigenvalues --    0.38689   0.39397   0.39593   0.40095   0.40390
 Alpha virt. eigenvalues --    0.40817   0.41185   0.41293   0.42393   0.42461
 Alpha virt. eigenvalues --    0.42771   0.43459   0.43679   0.44290   0.44629
 Alpha virt. eigenvalues --    0.45055   0.45504   0.46209   0.46949   0.47401
 Alpha virt. eigenvalues --    0.47828   0.48847   0.49107   0.49365   0.50493
 Alpha virt. eigenvalues --    0.51166   0.51550   0.52105   0.52985   0.53345
 Alpha virt. eigenvalues --    0.53714   0.54221   0.54716   0.54936   0.55604
 Alpha virt. eigenvalues --    0.56707   0.57071   0.57667   0.58243   0.59148
 Alpha virt. eigenvalues --    0.59685   0.60186   0.61399   0.62330   0.63176
 Alpha virt. eigenvalues --    0.63838   0.64610   0.65361   0.66825   0.67069
 Alpha virt. eigenvalues --    0.67432   0.67655   0.67890   0.69277   0.69828
 Alpha virt. eigenvalues --    0.70240   0.70332   0.70731   0.71510   0.72033
 Alpha virt. eigenvalues --    0.72305   0.72758   0.73275   0.73359   0.74121
 Alpha virt. eigenvalues --    0.74575   0.74859   0.75220   0.75988   0.76640
 Alpha virt. eigenvalues --    0.77081   0.77248   0.78076   0.79401   0.80212
 Alpha virt. eigenvalues --    0.80319   0.80915   0.82061   0.82671   0.82924
 Alpha virt. eigenvalues --    0.83725   0.84393   0.85866   0.86976   0.87496
 Alpha virt. eigenvalues --    0.88758   0.88970   0.90194   0.90584   0.91362
 Alpha virt. eigenvalues --    0.91678   0.91878   0.92876   0.93438   0.93690
 Alpha virt. eigenvalues --    0.94851   0.95047   0.96436   0.96755   0.97664
 Alpha virt. eigenvalues --    0.97813   0.99302   0.99942   1.00243   1.00666
 Alpha virt. eigenvalues --    1.01985   1.03191   1.03890   1.04206   1.04868
 Alpha virt. eigenvalues --    1.05483   1.06156   1.07566   1.07800   1.08370
 Alpha virt. eigenvalues --    1.09181   1.09673   1.10143   1.11690   1.11829
 Alpha virt. eigenvalues --    1.13834   1.14077   1.14348   1.15670   1.19358
 Alpha virt. eigenvalues --    1.19628   1.19886   1.20868   1.22050   1.23011
 Alpha virt. eigenvalues --    1.24327   1.24998   1.25329   1.26147   1.26590
 Alpha virt. eigenvalues --    1.27701   1.28105   1.30679   1.31771   1.32444
 Alpha virt. eigenvalues --    1.33337   1.34885   1.37254   1.38278   1.39260
 Alpha virt. eigenvalues --    1.40319   1.42049   1.42707   1.42796   1.44211
 Alpha virt. eigenvalues --    1.44867   1.45365   1.45907   1.46806   1.47968
 Alpha virt. eigenvalues --    1.48423   1.48888   1.50206   1.50736   1.51687
 Alpha virt. eigenvalues --    1.52009   1.52096   1.53492   1.54741   1.55568
 Alpha virt. eigenvalues --    1.56420   1.56865   1.57845   1.58432   1.58879
 Alpha virt. eigenvalues --    1.59433   1.60267   1.61209   1.62182   1.63001
 Alpha virt. eigenvalues --    1.63603   1.65057   1.67266   1.67744   1.68296
 Alpha virt. eigenvalues --    1.69248   1.69984   1.71224   1.71914   1.72196
 Alpha virt. eigenvalues --    1.73211   1.73907   1.74246   1.74808   1.75846
 Alpha virt. eigenvalues --    1.77326   1.77743   1.78236   1.79107   1.79939
 Alpha virt. eigenvalues --    1.80864   1.82302   1.83676   1.85795   1.86215
 Alpha virt. eigenvalues --    1.86302   1.86931   1.87815   1.89060   1.89510
 Alpha virt. eigenvalues --    1.90892   1.91623   1.92176   1.92683   1.93526
 Alpha virt. eigenvalues --    1.94077   1.94298   1.96521   1.97021   1.97708
 Alpha virt. eigenvalues --    1.98567   1.99058   2.00275   2.00921   2.01948
 Alpha virt. eigenvalues --    2.02363   2.03041   2.03949   2.04359   2.05944
 Alpha virt. eigenvalues --    2.06320   2.06553   2.07914   2.08485   2.08710
 Alpha virt. eigenvalues --    2.09461   2.10390   2.11343   2.12109   2.12539
 Alpha virt. eigenvalues --    2.13163   2.13444   2.14179   2.14521   2.15272
 Alpha virt. eigenvalues --    2.15941   2.17331   2.17659   2.18474   2.19464
 Alpha virt. eigenvalues --    2.20189   2.20524   2.20780   2.21876   2.22536
 Alpha virt. eigenvalues --    2.23427   2.24156   2.24932   2.25192   2.26041
 Alpha virt. eigenvalues --    2.26501   2.26873   2.27985   2.29686   2.31537
 Alpha virt. eigenvalues --    2.31791   2.32681   2.33443   2.33892   2.36861
 Alpha virt. eigenvalues --    2.37339   2.38461   2.39850   2.40570   2.42781
 Alpha virt. eigenvalues --    2.44670   2.45807   2.47088   2.47171   2.48361
 Alpha virt. eigenvalues --    2.49784   2.53856   2.54700   2.56468   2.57543
 Alpha virt. eigenvalues --    2.57678   2.58350   2.61127   2.62526   2.63868
 Alpha virt. eigenvalues --    2.64928   2.66401   2.66984   2.67022   2.68324
 Alpha virt. eigenvalues --    2.68760   2.69585   2.70233   2.71214   2.73004
 Alpha virt. eigenvalues --    2.73866   2.73998   2.76534   2.80049   2.81084
 Alpha virt. eigenvalues --    2.81601   2.82739   2.84151   2.85231   2.85513
 Alpha virt. eigenvalues --    2.88079   2.88615   2.90215   2.91970   2.92590
 Alpha virt. eigenvalues --    2.93491   2.95025   2.95993   2.96205   2.96851
 Alpha virt. eigenvalues --    2.97188   2.97797   2.99243   3.00253   3.02314
 Alpha virt. eigenvalues --    3.02794   3.03265   3.03691   3.03798   3.04396
 Alpha virt. eigenvalues --    3.05109   3.06525   3.07318   3.08006   3.08871
 Alpha virt. eigenvalues --    3.09539   3.10108   3.10877   3.12109   3.12416
 Alpha virt. eigenvalues --    3.13029   3.13688   3.13885   3.14464   3.15236
 Alpha virt. eigenvalues --    3.15425   3.16009   3.16137   3.16938   3.17202
 Alpha virt. eigenvalues --    3.17980   3.18554   3.19375   3.20939   3.21746
 Alpha virt. eigenvalues --    3.22372   3.22956   3.24625   3.24857   3.25039
 Alpha virt. eigenvalues --    3.26273   3.27145   3.27426   3.28163   3.29248
 Alpha virt. eigenvalues --    3.30390   3.31909   3.32735   3.34731   3.35638
 Alpha virt. eigenvalues --    3.37363   3.38858   3.41066   3.42794   3.43540
 Alpha virt. eigenvalues --    3.44362   3.45069   3.45497   3.45690   3.46642
 Alpha virt. eigenvalues --    3.47382   3.47784   3.48954   3.49056   3.49623
 Alpha virt. eigenvalues --    3.49968   3.50508   3.50828   3.52132   3.53547
 Alpha virt. eigenvalues --    3.54370   3.54797   3.55903   3.56503   3.58161
 Alpha virt. eigenvalues --    3.58941   3.59727   3.61198   3.61744   3.62903
 Alpha virt. eigenvalues --    3.63134   3.63837   3.65158   3.66332   3.66857
 Alpha virt. eigenvalues --    3.67694   3.68841   3.70346   3.70822   3.72066
 Alpha virt. eigenvalues --    3.73192   3.73359   3.73773   3.74158   3.74599
 Alpha virt. eigenvalues --    3.76972   3.77316   3.78798   3.80358   3.81385
 Alpha virt. eigenvalues --    3.82056   3.82229   3.84337   3.84992   3.88635
 Alpha virt. eigenvalues --    3.89900   3.91145   3.91856   3.92189   3.92501
 Alpha virt. eigenvalues --    3.94676   3.96302   3.96467   3.98329   3.99673
 Alpha virt. eigenvalues --    4.00129   4.00948   4.01153   4.03729   4.05896
 Alpha virt. eigenvalues --    4.07231   4.07915   4.09019   4.09933   4.11258
 Alpha virt. eigenvalues --    4.11881   4.13768   4.14069   4.15599   4.17593
 Alpha virt. eigenvalues --    4.18118   4.18817   4.20500   4.21377   4.21849
 Alpha virt. eigenvalues --    4.22870   4.23085   4.23092   4.24271   4.25252
 Alpha virt. eigenvalues --    4.25882   4.28374   4.31727   4.34212   4.37087
 Alpha virt. eigenvalues --    4.43766   4.45035   4.45859   4.46951   4.47787
 Alpha virt. eigenvalues --    4.49014   4.49726   4.50689   4.51101   4.52788
 Alpha virt. eigenvalues --    4.53914   4.55097   4.55781   4.57026   4.59875
 Alpha virt. eigenvalues --    4.60436   4.61713   4.63609   4.66736   5.08979
 Alpha virt. eigenvalues --    5.09022   5.11703   5.15267   5.16863   5.18581
 Alpha virt. eigenvalues --    5.22746   5.23204   5.23374   5.23519   5.23942
 Alpha virt. eigenvalues --    5.24125   5.24364   5.24723   5.25129   5.25339
 Alpha virt. eigenvalues --    5.25477   5.25674   5.25733   5.26184   5.26322
 Alpha virt. eigenvalues --    5.26592   5.27006   5.27445   5.28597   5.28802
 Alpha virt. eigenvalues --    5.29067   5.29584   5.30199   5.30869   5.31071
 Alpha virt. eigenvalues --    5.32175   5.32454   5.32686   5.32964   5.33566
 Alpha virt. eigenvalues --    5.34460   5.35603   5.36343   5.38065   5.39161
 Alpha virt. eigenvalues --    5.39242   5.40199   5.40384   5.42366   5.43762
 Alpha virt. eigenvalues --    5.44998   5.45760   5.47940   5.49865   5.50556
 Alpha virt. eigenvalues --    5.51255   5.54052   5.57595   5.57889   5.58438
 Alpha virt. eigenvalues --    5.58548   5.58894   5.60180   5.61638   5.62640
 Alpha virt. eigenvalues --    5.63154   5.63509   5.64323   5.66153   5.68038
 Alpha virt. eigenvalues --    5.68723   5.68882   5.69053   5.69334   5.69629
 Alpha virt. eigenvalues --    5.87693   5.88056   5.89398   5.92879   5.93215
 Alpha virt. eigenvalues --    5.94122   5.95355   6.05101   6.05365   6.05982
 Alpha virt. eigenvalues --    6.06983   6.08613   6.09201   6.11119   6.15049
 Alpha virt. eigenvalues --    6.15755   6.16298   6.16702   6.17026   6.17856
 Alpha virt. eigenvalues --    6.18312   6.20377   6.21059   6.22353   6.22475
 Alpha virt. eigenvalues --    6.26835   6.32362   6.35061   6.37217   6.41673
 Alpha virt. eigenvalues --    6.42046   6.42358   6.42809   6.43575   6.44589
 Alpha virt. eigenvalues --    6.46684   6.47332   6.48071   6.48436   6.49450
 Alpha virt. eigenvalues --    6.49700   6.49797   6.50504   6.51238   6.52096
 Alpha virt. eigenvalues --    6.53840   6.54457   6.54869   6.56049   6.57020
 Alpha virt. eigenvalues --    6.58121   6.59736   6.60394   6.61672   6.62247
 Alpha virt. eigenvalues --    6.63345   6.63748   6.64938   6.65857   6.66593
 Alpha virt. eigenvalues --    6.67428   6.67962   6.69242   6.69951   6.71993
 Alpha virt. eigenvalues --    6.72585   6.73814   6.74493   6.75935   6.79210
 Alpha virt. eigenvalues --    6.80625   6.83598   6.84599   6.85898   6.87048
 Alpha virt. eigenvalues --    6.87787   6.88199   6.89008   6.89898   6.90629
 Alpha virt. eigenvalues --    6.91085   6.91707   6.94511   6.95843   6.96877
 Alpha virt. eigenvalues --    6.98168   6.98978   6.99790   7.00613   7.03363
 Alpha virt. eigenvalues --    7.03736   7.05914   7.06366   7.07291   7.09109
 Alpha virt. eigenvalues --    7.09270   7.11655   7.12646   7.14209   7.22338
 Alpha virt. eigenvalues --    7.22581   7.22913   7.23416   7.24941   7.25428
 Alpha virt. eigenvalues --    7.26147   7.26883   7.27380   7.27989   7.28166
 Alpha virt. eigenvalues --    7.29504   7.30417   7.32803   7.32823   7.35798
 Alpha virt. eigenvalues --    7.37058   7.39819   7.46917  23.20401  23.21146
 Alpha virt. eigenvalues --   23.22502  23.23092  23.23845  23.26790  31.50119
 Alpha virt. eigenvalues --   32.25156  43.66905  43.73310  43.79978  43.87409
 Alpha virt. eigenvalues --   43.92221  43.93652  43.96091  44.08639  44.11719
 Alpha virt. eigenvalues --   44.14535  44.16359  44.17710  44.20027  44.29374
 Alpha virt. eigenvalues --   44.30192
  Beta  occ. eigenvalues -- -255.65892-255.64979-255.63200 -30.10856 -29.98683
  Beta  occ. eigenvalues --  -29.98165 -25.87944 -25.87879 -25.87846 -25.78918
  Beta  occ. eigenvalues --  -25.78902 -25.78738 -25.78727 -25.77633 -25.77411
  Beta  occ. eigenvalues --  -19.03653 -18.99597 -18.99496 -18.99495 -18.99255
  Beta  occ. eigenvalues --  -18.99222 -18.98954 -18.98600 -18.98577 -18.98555
  Beta  occ. eigenvalues --  -18.98524 -18.98241 -18.97794 -18.97602 -18.95906
  Beta  occ. eigenvalues --  -14.24675 -14.24532 -10.19492 -10.19435 -10.18576
  Beta  occ. eigenvalues --  -10.18317 -10.18198 -10.18099  -3.67555  -3.42618
  Beta  occ. eigenvalues --   -3.42460  -2.41628  -2.41483  -2.41427  -2.19345
  Beta  occ. eigenvalues --   -2.17285  -2.16661  -2.16645  -2.15989  -2.15552
  Beta  occ. eigenvalues --   -1.08131  -1.07586  -1.07218  -1.06641  -1.06557
  Beta  occ. eigenvalues --   -1.06048  -1.05768  -1.05593  -1.00144  -0.99756
  Beta  occ. eigenvalues --   -0.99483  -0.98922  -0.98679  -0.98248  -0.93256
  Beta  occ. eigenvalues --   -0.85326  -0.60406  -0.59387  -0.59012  -0.58512
  Beta  occ. eigenvalues --   -0.58412  -0.57657  -0.55913  -0.50355  -0.50313
  Beta  occ. eigenvalues --   -0.49429  -0.49012  -0.48834  -0.48304  -0.47969
  Beta  occ. eigenvalues --   -0.47741  -0.47207  -0.46925  -0.46636  -0.46309
  Beta  occ. eigenvalues --   -0.46186  -0.46073  -0.44926  -0.43393  -0.42872
  Beta  occ. eigenvalues --   -0.42523  -0.41768  -0.41621  -0.41406  -0.41321
  Beta  occ. eigenvalues --   -0.41147  -0.40769  -0.40062  -0.39858  -0.37946
  Beta  occ. eigenvalues --   -0.37326  -0.36374  -0.36095  -0.34359  -0.32571
  Beta  occ. eigenvalues --   -0.32270  -0.32137  -0.31805  -0.30986  -0.30618
  Beta  occ. eigenvalues --   -0.30536  -0.30204  -0.29899  -0.29684  -0.29344
  Beta  occ. eigenvalues --   -0.29071  -0.28790  -0.28706  -0.28604  -0.28171
  Beta  occ. eigenvalues --   -0.27637  -0.26673  -0.26112  -0.25555  -0.25216
  Beta  occ. eigenvalues --   -0.24660
  Beta virt. eigenvalues --   -0.17491  -0.16881  -0.16373  -0.15792  -0.13555
  Beta virt. eigenvalues --   -0.12250  -0.11814  -0.11687  -0.10808  -0.07185
  Beta virt. eigenvalues --   -0.04641  -0.04065  -0.03478  -0.03430  -0.03150
  Beta virt. eigenvalues --   -0.02847  -0.02597  -0.02329   0.00509   0.03904
  Beta virt. eigenvalues --    0.06480   0.06761   0.07325   0.08081   0.08261
  Beta virt. eigenvalues --    0.08391   0.08668   0.09095   0.10719   0.10983
  Beta virt. eigenvalues --    0.12522   0.14372   0.15413   0.15506   0.16417
  Beta virt. eigenvalues --    0.17328   0.17687   0.17834   0.18512   0.20040
  Beta virt. eigenvalues --    0.21076   0.21422   0.22020   0.22181   0.23005
  Beta virt. eigenvalues --    0.23303   0.23679   0.24538   0.24876   0.25286
  Beta virt. eigenvalues --    0.26319   0.26635   0.27218   0.27545   0.28080
  Beta virt. eigenvalues --    0.28299   0.28663   0.29538   0.29837   0.30550
  Beta virt. eigenvalues --    0.30835   0.31351   0.31609   0.31887   0.32685
  Beta virt. eigenvalues --    0.32968   0.33219   0.33392   0.33824   0.34592
  Beta virt. eigenvalues --    0.34708   0.35490   0.36322   0.36593   0.36863
  Beta virt. eigenvalues --    0.37139   0.37425   0.38279   0.38557   0.38811
  Beta virt. eigenvalues --    0.39381   0.39701   0.40022   0.40451   0.40618
  Beta virt. eigenvalues --    0.40907   0.41357   0.42307   0.42496   0.42798
  Beta virt. eigenvalues --    0.43557   0.43862   0.44401   0.44696   0.45220
  Beta virt. eigenvalues --    0.45478   0.46455   0.46967   0.47478   0.47910
  Beta virt. eigenvalues --    0.48888   0.48958   0.49489   0.50749   0.51256
  Beta virt. eigenvalues --    0.51752   0.52332   0.52986   0.53479   0.53841
  Beta virt. eigenvalues --    0.54172   0.54772   0.55080   0.55797   0.56714
  Beta virt. eigenvalues --    0.57019   0.57589   0.58333   0.59360   0.59466
  Beta virt. eigenvalues --    0.60362   0.61387   0.62437   0.63493   0.63857
  Beta virt. eigenvalues --    0.64892   0.65478   0.66911   0.67080   0.67554
  Beta virt. eigenvalues --    0.67889   0.68076   0.69466   0.69975   0.70114
  Beta virt. eigenvalues --    0.70571   0.70965   0.71459   0.72057   0.72487
  Beta virt. eigenvalues --    0.72818   0.73278   0.73539   0.74256   0.74746
  Beta virt. eigenvalues --    0.75001   0.75191   0.76022   0.76703   0.77065
  Beta virt. eigenvalues --    0.77520   0.78318   0.79482   0.80323   0.80612
  Beta virt. eigenvalues --    0.81188   0.82418   0.82585   0.83279   0.84010
  Beta virt. eigenvalues --    0.84677   0.86299   0.87358   0.87768   0.88630
  Beta virt. eigenvalues --    0.89081   0.90576   0.90694   0.91369   0.91812
  Beta virt. eigenvalues --    0.92124   0.93188   0.93300   0.93789   0.95250
  Beta virt. eigenvalues --    0.95381   0.96420   0.96733   0.97744   0.98269
  Beta virt. eigenvalues --    0.99446   1.00113   1.00991   1.01484   1.01893
  Beta virt. eigenvalues --    1.03454   1.04069   1.04707   1.04830   1.05765
  Beta virt. eigenvalues --    1.06096   1.07743   1.07914   1.08409   1.09458
  Beta virt. eigenvalues --    1.10061   1.10458   1.11167   1.12867   1.13325
  Beta virt. eigenvalues --    1.14506   1.15562   1.16128   1.19610   1.20045
  Beta virt. eigenvalues --    1.20640   1.21127   1.21850   1.23356   1.24569
  Beta virt. eigenvalues --    1.25170   1.25428   1.26363   1.26832   1.28186
  Beta virt. eigenvalues --    1.28462   1.30757   1.31906   1.32630   1.33348
  Beta virt. eigenvalues --    1.34920   1.37359   1.38427   1.39870   1.40469
  Beta virt. eigenvalues --    1.42101   1.42841   1.42894   1.43940   1.44680
  Beta virt. eigenvalues --    1.45354   1.45902   1.47328   1.48125   1.48815
  Beta virt. eigenvalues --    1.49556   1.50405   1.50983   1.51772   1.52333
  Beta virt. eigenvalues --    1.52797   1.54106   1.54962   1.56009   1.56892
  Beta virt. eigenvalues --    1.57230   1.58051   1.58981   1.59190   1.59716
  Beta virt. eigenvalues --    1.60559   1.61507   1.62528   1.63351   1.63873
  Beta virt. eigenvalues --    1.65608   1.67316   1.67892   1.68132   1.69728
  Beta virt. eigenvalues --    1.70355   1.71597   1.72472   1.73189   1.73779
  Beta virt. eigenvalues --    1.74249   1.75019   1.75272   1.76383   1.77637
  Beta virt. eigenvalues --    1.78334   1.78447   1.79528   1.80433   1.81000
  Beta virt. eigenvalues --    1.82788   1.84110   1.85858   1.86289   1.86474
  Beta virt. eigenvalues --    1.87138   1.88281   1.89241   1.89353   1.91287
  Beta virt. eigenvalues --    1.91692   1.92490   1.92845   1.93835   1.94360
  Beta virt. eigenvalues --    1.94478   1.96653   1.97184   1.97992   1.98793
  Beta virt. eigenvalues --    1.99203   2.00604   2.01232   2.02085   2.02797
  Beta virt. eigenvalues --    2.03138   2.04282   2.05394   2.05927   2.06687
  Beta virt. eigenvalues --    2.06936   2.07941   2.08421   2.09232   2.09302
  Beta virt. eigenvalues --    2.10644   2.11325   2.12186   2.12673   2.13355
  Beta virt. eigenvalues --    2.13941   2.14510   2.15104   2.15378   2.16563
  Beta virt. eigenvalues --    2.17258   2.17598   2.18774   2.19454   2.19983
  Beta virt. eigenvalues --    2.20377   2.21691   2.22359   2.22956   2.23753
  Beta virt. eigenvalues --    2.24071   2.24889   2.25393   2.26917   2.27465
  Beta virt. eigenvalues --    2.27978   2.28928   2.30058   2.31176   2.32357
  Beta virt. eigenvalues --    2.33567   2.34419   2.34860   2.36828   2.37826
  Beta virt. eigenvalues --    2.39128   2.40122   2.41030   2.43294   2.44133
  Beta virt. eigenvalues --    2.45534   2.46532   2.47283   2.48024   2.49701
  Beta virt. eigenvalues --    2.54226   2.55404   2.56503   2.57748   2.58135
  Beta virt. eigenvalues --    2.59278   2.61901   2.62596   2.63983   2.64904
  Beta virt. eigenvalues --    2.66442   2.66802   2.67966   2.68455   2.68741
  Beta virt. eigenvalues --    2.70017   2.70748   2.71670   2.72848   2.74251
  Beta virt. eigenvalues --    2.75515   2.76424   2.80142   2.81350   2.82194
  Beta virt. eigenvalues --    2.82769   2.84489   2.85328   2.87565   2.88957
  Beta virt. eigenvalues --    2.90529   2.91781   2.92632   2.93429   2.93893
  Beta virt. eigenvalues --    2.95605   2.96231   2.96815   2.97075   2.97660
  Beta virt. eigenvalues --    2.98373   2.99480   3.00790   3.02456   3.03439
  Beta virt. eigenvalues --    3.03614   3.03945   3.04476   3.05846   3.06096
  Beta virt. eigenvalues --    3.06295   3.07717   3.08391   3.09524   3.09830
  Beta virt. eigenvalues --    3.10055   3.11451   3.12411   3.12644   3.13175
  Beta virt. eigenvalues --    3.13867   3.14022   3.14712   3.15343   3.15637
  Beta virt. eigenvalues --    3.16115   3.16330   3.17257   3.17421   3.18210
  Beta virt. eigenvalues --    3.19313   3.20027   3.21098   3.22321   3.22817
  Beta virt. eigenvalues --    3.23575   3.25007   3.25364   3.25985   3.26639
  Beta virt. eigenvalues --    3.27422   3.27696   3.28292   3.30100   3.30712
  Beta virt. eigenvalues --    3.32528   3.33211   3.35549   3.36240   3.38050
  Beta virt. eigenvalues --    3.39708   3.41755   3.43298   3.44048   3.44963
  Beta virt. eigenvalues --    3.45739   3.46159   3.46572   3.47598   3.48072
  Beta virt. eigenvalues --    3.48770   3.48775   3.49441   3.49660   3.49989
  Beta virt. eigenvalues --    3.50640   3.50880   3.51779   3.53124   3.55159
  Beta virt. eigenvalues --    3.55667   3.56154   3.58198   3.58648   3.60047
  Beta virt. eigenvalues --    3.61678   3.62480   3.62889   3.64007   3.64679
  Beta virt. eigenvalues --    3.65082   3.66795   3.67246   3.68337   3.68614
  Beta virt. eigenvalues --    3.69838   3.72185   3.72750   3.73125   3.73457
  Beta virt. eigenvalues --    3.73852   3.74978   3.75600   3.77719   3.78209
  Beta virt. eigenvalues --    3.78788   3.80173   3.81104   3.81741   3.82665
  Beta virt. eigenvalues --    3.83270   3.83747   3.84288   3.88162   3.89853
  Beta virt. eigenvalues --    3.90280   3.91943   3.93379   3.93792   3.97312
  Beta virt. eigenvalues --    3.97763   3.99612   4.00509   4.02939   4.06789
  Beta virt. eigenvalues --    4.08477   4.09039   4.09866   4.10018   4.10391
  Beta virt. eigenvalues --    4.11176   4.12317   4.12918   4.14128   4.14612
  Beta virt. eigenvalues --    4.14944   4.15455   4.17616   4.18702   4.20190
  Beta virt. eigenvalues --    4.21308   4.22814   4.22907   4.23426   4.23796
  Beta virt. eigenvalues --    4.24730   4.25341   4.26747   4.27598   4.28779
  Beta virt. eigenvalues --    4.30974   4.31771   4.34081   4.35670   4.44032
  Beta virt. eigenvalues --    4.45029   4.45949   4.47046   4.47936   4.49082
  Beta virt. eigenvalues --    4.50303   4.51321   4.51655   4.52972   4.54039
  Beta virt. eigenvalues --    4.55570   4.57257   4.59905   4.59951   4.61628
  Beta virt. eigenvalues --    4.62671   4.63709   4.66754   5.08986   5.09028
  Beta virt. eigenvalues --    5.11707   5.15274   5.16874   5.18052   5.22902
  Beta virt. eigenvalues --    5.23370   5.23496   5.24092   5.24219   5.24682
  Beta virt. eigenvalues --    5.24968   5.25102   5.25530   5.25723   5.25893
  Beta virt. eigenvalues --    5.26012   5.26896   5.27397   5.27683   5.28082
  Beta virt. eigenvalues --    5.28900   5.29073   5.29387   5.30021   5.30853
  Beta virt. eigenvalues --    5.30979   5.31703   5.32161   5.32488   5.33143
  Beta virt. eigenvalues --    5.33559   5.33678   5.34546   5.34697   5.35358
  Beta virt. eigenvalues --    5.36748   5.37843   5.38649   5.40472   5.40625
  Beta virt. eigenvalues --    5.42774   5.42833   5.43726   5.44045   5.45316
  Beta virt. eigenvalues --    5.46979   5.47828   5.49695   5.50756   5.51368
  Beta virt. eigenvalues --    5.53734   5.57678   5.58336   5.58448   5.58655
  Beta virt. eigenvalues --    5.59199   5.60230   5.61606   5.62436   5.63387
  Beta virt. eigenvalues --    5.63902   5.64674   5.66301   5.68271   5.68819
  Beta virt. eigenvalues --    5.69217   5.69398   5.69440   5.69888   5.87781
  Beta virt. eigenvalues --    5.88200   5.89547   5.93144   5.93635   5.95294
  Beta virt. eigenvalues --    5.99807   6.05131   6.05351   6.06196   6.07018
  Beta virt. eigenvalues --    6.08583   6.09613   6.10975   6.15544   6.15850
  Beta virt. eigenvalues --    6.16254   6.16578   6.17158   6.17890   6.18339
  Beta virt. eigenvalues --    6.20864   6.21088   6.22459   6.22900   6.27432
  Beta virt. eigenvalues --    6.32418   6.34644   6.41966   6.42511   6.42577
  Beta virt. eigenvalues --    6.42706   6.43557   6.43750   6.45636   6.47547
  Beta virt. eigenvalues --    6.48155   6.48840   6.50020   6.50162   6.50305
  Beta virt. eigenvalues --    6.50739   6.51401   6.52250   6.52858   6.54053
  Beta virt. eigenvalues --    6.54885   6.55471   6.56576   6.57859   6.58787
  Beta virt. eigenvalues --    6.60053   6.60857   6.62138   6.63132   6.63604
  Beta virt. eigenvalues --    6.64109   6.65076   6.66483   6.66988   6.67696
  Beta virt. eigenvalues --    6.68326   6.70098   6.71621   6.72816   6.73939
  Beta virt. eigenvalues --    6.75165   6.75354   6.76238   6.79810   6.81003
  Beta virt. eigenvalues --    6.84000   6.84774   6.86428   6.87441   6.87807
  Beta virt. eigenvalues --    6.88520   6.89668   6.90240   6.90702   6.90806
  Beta virt. eigenvalues --    6.92375   6.94434   6.96257   6.96876   6.98623
  Beta virt. eigenvalues --    6.99532   7.00470   7.00687   7.03519   7.04241
  Beta virt. eigenvalues --    7.06366   7.06793   7.07379   7.09240   7.09495
  Beta virt. eigenvalues --    7.11822   7.12984   7.14470   7.22765   7.22919
  Beta virt. eigenvalues --    7.23668   7.24635   7.25276   7.25836   7.26455
  Beta virt. eigenvalues --    7.27029   7.27322   7.28149   7.28545   7.29444
  Beta virt. eigenvalues --    7.30687   7.32841   7.33093   7.36009   7.37277
  Beta virt. eigenvalues --    7.39956   7.47529  23.20402  23.21144  23.22502
  Beta virt. eigenvalues --   23.23091  23.23838  23.26782  31.50119  32.25156
  Beta virt. eigenvalues --   43.66906  43.73173  43.79980  43.87393  43.92219
  Beta virt. eigenvalues --   43.93646  43.96086  44.08612  44.11714  44.14528
  Beta virt. eigenvalues --   44.16352  44.17708  44.20024  44.29366  44.30186
          Condensed to atoms (all electrons):
               1          2          3          4          5          6
     1  O    8.331123  -0.092779   0.323044  -0.065887   0.000010  -0.001415
     2  O   -0.092779   8.251803   0.371516  -0.053857  -0.000000   0.000011
     3  C    0.323044   0.371516   4.235709   0.414683  -0.000052   0.000596
     4  H   -0.065887  -0.053857   0.414683   0.646917  -0.000000   0.000003
     5  O    0.000010  -0.000000  -0.000052  -0.000000   8.358263  -0.101925
     6  O   -0.001415   0.000011   0.000596   0.000003  -0.101925   8.292799
     7  C    0.000607  -0.000066   0.000221   0.000002   0.385173   0.374057
     8  H    0.000004  -0.000000   0.000002   0.000000  -0.055993  -0.061653
     9  O    0.000015  -0.020429   0.001019  -0.000052  -0.000007  -0.000001
    10  O   -0.036748   0.000055  -0.000980  -0.000095  -0.000709  -0.040894
    11  O   -0.000034  -0.000014  -0.000079   0.000000  -0.034327   0.001212
    12  C   -0.000474  -0.000038   0.001379   0.000025   0.002490  -0.002942
    13  H   -0.000096  -0.000000   0.000067   0.000001  -0.000086  -0.000277
    14  O    0.000647  -0.025166   0.002280  -0.000105  -0.000019   0.000036
    15  O   -0.036733  -0.002255  -0.001424  -0.000473   0.000030  -0.037039
    16  C   -0.002794   0.008043   0.000163   0.000461   0.000121  -0.002036
    17  H   -0.000228  -0.000031   0.000387  -0.000005   0.000006  -0.000177
    18  Fe  -0.006377   0.125438  -0.016523   0.002139   0.000515   0.000480
    19  O    0.000001  -0.000982   0.000182   0.000001   0.000034  -0.000004
    20  Fe  -0.000113   0.000215   0.000154   0.000014   0.108393  -0.005349
    21  O   -0.000000  -0.000003  -0.000002  -0.000000  -0.028235   0.000002
    22  O   -0.000010  -0.000042  -0.000064  -0.000001  -0.001345  -0.000001
    23  Fe   0.147515   0.002527  -0.020432   0.003500  -0.001561   0.132558
    24  O   -0.009982  -0.024981  -0.002857  -0.000493  -0.023115  -0.012247
    25  C   -0.000005   0.000216  -0.000019  -0.000000   0.001121  -0.000057
    26  H   -0.000000   0.000001  -0.000000   0.000000   0.000024   0.000000
    27  C   -0.000063   0.001588   0.000391   0.000085   0.000594  -0.000015
    28  H    0.000000  -0.000016   0.000037   0.000000   0.000005  -0.000000
    29  N    0.000000  -0.000000  -0.000000  -0.000000   0.000000   0.000000
    30  N    0.000000  -0.000005  -0.000002  -0.000000  -0.000000  -0.000000
    31  O   -0.000057  -0.024108   0.000497   0.000094  -0.000000  -0.000000
    32  O   -0.000000  -0.000000  -0.000001  -0.000000  -0.029306  -0.000076
    33  H   -0.000000  -0.000000   0.000000  -0.000000   0.001233  -0.000000
    34  H   -0.000000  -0.000000   0.000000   0.000000   0.004385   0.000076
               7          8          9         10         11         12
     1  O    0.000607   0.000004   0.000015  -0.036748  -0.000034  -0.000474
     2  O   -0.000066  -0.000000  -0.020429   0.000055  -0.000014  -0.000038
     3  C    0.000221   0.000002   0.001019  -0.000980  -0.000079   0.001379
     4  H    0.000002   0.000000  -0.000052  -0.000095   0.000000   0.000025
     5  O    0.385173  -0.055993  -0.000007  -0.000709  -0.034327   0.002490
     6  O    0.374057  -0.061653  -0.000001  -0.040894   0.001212  -0.002942
     7  C    4.154392   0.415167  -0.000008   0.000090  -0.000580  -0.001319
     8  H    0.415167   0.647699  -0.000000  -0.000336  -0.000171   0.000286
     9  O   -0.000008  -0.000000   8.256050  -0.000018   0.000144  -0.000054
    10  O    0.000090  -0.000336  -0.000018   8.288644  -0.100799   0.393473
    11  O   -0.000580  -0.000171   0.000144  -0.100799   8.387419   0.372681
    12  C   -0.001319   0.000286  -0.000054   0.393473   0.372681   4.143410
    13  H    0.000260  -0.000006  -0.000002  -0.059323  -0.060512   0.413749
    14  O   -0.000113  -0.000002  -0.002048  -0.000001   0.000000  -0.000024
    15  O   -0.001177  -0.000116  -0.000006  -0.001220  -0.000003   0.000671
    16  C    0.001306   0.000027   0.000656   0.000581  -0.000025   0.000024
    17  H    0.000066  -0.000000   0.000003   0.000004  -0.000000   0.000001
    18  Fe  -0.000163   0.000015   0.127388   0.000376   0.000549  -0.000042
    19  O   -0.000080  -0.000000  -0.023125  -0.000000   0.000002  -0.000028
    20  Fe  -0.009540   0.001710  -0.002991  -0.004673   0.106323  -0.001051
    21  O    0.001135  -0.000050   0.000569  -0.000007  -0.001483   0.000685
    22  O    0.000426   0.000003  -0.082004   0.000007  -0.027161   0.000553
    23  Fe  -0.017582   0.003066   0.000214   0.127614  -0.006253  -0.014913
    24  O   -0.000165  -0.000373  -0.023100  -0.021556  -0.017413   0.000751
    25  C    0.000304   0.000042   0.002431  -0.000031   0.000854  -0.000067
    26  H    0.000015   0.000001  -0.000085  -0.000000   0.000004   0.000001
    27  C   -0.000054  -0.000000   0.346474   0.000089  -0.001580   0.000420
    28  H    0.000000   0.000000  -0.059017   0.000003  -0.000129   0.000081
    29  N   -0.000000   0.000000   0.000045  -0.000000   0.000000   0.000000
    30  N   -0.000000  -0.000000  -0.002920  -0.000000  -0.000000  -0.000000
    31  O   -0.000000  -0.000000  -0.027457  -0.000000  -0.000000   0.000001
    32  O    0.001057   0.000052  -0.000005  -0.000044  -0.031200   0.000718
    33  H    0.000004   0.000006  -0.000003   0.000101   0.006139   0.000551
    34  H    0.000612  -0.000128  -0.000002   0.000001   0.000757   0.000065
              13         14         15         16         17         18
     1  O   -0.000096   0.000647  -0.036733  -0.002794  -0.000228  -0.006377
     2  O   -0.000000  -0.025166  -0.002255   0.008043  -0.000031   0.125438
     3  C    0.000067   0.002280  -0.001424   0.000163   0.000387  -0.016523
     4  H    0.000001  -0.000105  -0.000473   0.000461  -0.000005   0.002139
     5  O   -0.000086  -0.000019   0.000030   0.000121   0.000006   0.000515
     6  O   -0.000277   0.000036  -0.037039  -0.002036  -0.000177   0.000480
     7  C    0.000260  -0.000113  -0.001177   0.001306   0.000066  -0.000163
     8  H   -0.000006  -0.000002  -0.000116   0.000027  -0.000000   0.000015
     9  O   -0.000002  -0.002048  -0.000006   0.000656   0.000003   0.127388
    10  O   -0.059323  -0.000001  -0.001220   0.000581   0.000004   0.000376
    11  O   -0.060512   0.000000  -0.000003  -0.000025  -0.000000   0.000549
    12  C    0.413749  -0.000024   0.000671   0.000024   0.000001  -0.000042
    13  H    0.650998  -0.000000   0.000005   0.000000   0.000000   0.000015
    14  O   -0.000000   8.241033  -0.085202   0.364704  -0.059899   0.128902
    15  O    0.000005  -0.085202   8.320259   0.351977  -0.062280  -0.005970
    16  C    0.000000   0.364704   0.351977   4.207290   0.412899  -0.008213
    17  H    0.000000  -0.059899  -0.062280   0.412899   0.650404   0.003064
    18  Fe   0.000015   0.128902  -0.005970  -0.008213   0.003064  24.249651
    19  O   -0.000000  -0.023085  -0.000018   0.001339  -0.000018   0.119080
    20  Fe   0.002321   0.000836  -0.000154  -0.000055   0.000044   0.014945
    21  O    0.000005   0.000017  -0.000023   0.000011   0.000002  -0.005158
    22  O   -0.000005  -0.000015  -0.000000  -0.000023  -0.000000  -0.005636
    23  Fe   0.002690  -0.006122   0.140712  -0.014835   0.002360   0.015143
    24  O   -0.000407  -0.020245  -0.022195  -0.004121  -0.000669   0.071465
    25  C    0.000001   0.001657  -0.000052   0.000345   0.000049  -0.012426
    26  H    0.000000  -0.000079  -0.000001   0.000108  -0.000001   0.001673
    27  C    0.000035   0.000701  -0.000035   0.000037   0.000002  -0.008459
    28  H    0.000003   0.000002  -0.000000   0.000002   0.000000   0.002683
    29  N    0.000000  -0.000010   0.000000  -0.000002  -0.000000  -0.000059
    30  N   -0.000000  -0.000005  -0.000000   0.000000  -0.000000  -0.000263
    31  O   -0.000000  -0.026826  -0.000034   0.001363   0.000049   0.198908
    32  O   -0.000056  -0.000000   0.000000  -0.000002  -0.000000   0.000056
    33  H   -0.000197  -0.000000  -0.000000   0.000000   0.000000  -0.000012
    34  H    0.000014   0.000000  -0.000000   0.000000  -0.000000  -0.000009
              19         20         21         22         23         24
     1  O    0.000001  -0.000113  -0.000000  -0.000010   0.147515  -0.009982
     2  O   -0.000982   0.000215  -0.000003  -0.000042   0.002527  -0.024981
     3  C    0.000182   0.000154  -0.000002  -0.000064  -0.020432  -0.002857
     4  H    0.000001   0.000014  -0.000000  -0.000001   0.003500  -0.000493
     5  O    0.000034   0.108393  -0.028235  -0.001345  -0.001561  -0.023115
     6  O   -0.000004  -0.005349   0.000002  -0.000001   0.132558  -0.012247
     7  C   -0.000080  -0.009540   0.001135   0.000426  -0.017582  -0.000165
     8  H   -0.000000   0.001710  -0.000050   0.000003   0.003066  -0.000373
     9  O   -0.023125  -0.002991   0.000569  -0.082004   0.000214  -0.023100
    10  O   -0.000000  -0.004673  -0.000007   0.000007   0.127614  -0.021556
    11  O    0.000002   0.106323  -0.001483  -0.027161  -0.006253  -0.017413
    12  C   -0.000028  -0.001051   0.000685   0.000553  -0.014913   0.000751
    13  H   -0.000000   0.002321   0.000005  -0.000005   0.002690  -0.000407
    14  O   -0.023085   0.000836   0.000017  -0.000015  -0.006122  -0.020245
    15  O   -0.000018  -0.000154  -0.000023  -0.000000   0.140712  -0.022195
    16  C    0.001339  -0.000055   0.000011  -0.000023  -0.014835  -0.004121
    17  H   -0.000018   0.000044   0.000002  -0.000000   0.002360  -0.000669
    18  Fe   0.119080   0.014945  -0.005158  -0.005636   0.015143   0.071465
    19  O    8.277557  -0.000395  -0.097362  -0.001434  -0.000181  -0.023175
    20  Fe  -0.000395  24.323006   0.139279   0.151495   0.014229   0.098066
    21  O   -0.097362   0.139279   8.355630  -0.026413  -0.000054  -0.020131
    22  O   -0.001434   0.151495  -0.026413   8.327118  -0.000257  -0.029428
    23  Fe  -0.000181   0.014229  -0.000054  -0.000257  24.367483   0.122811
    24  O   -0.023175   0.098066  -0.020131  -0.029428   0.122811   8.675133
    25  C    0.375611  -0.007554   0.330910   0.001149   0.000399  -0.000043
    26  H   -0.055034   0.002663  -0.064305  -0.000272   0.000017  -0.000505
    27  C    0.008208  -0.020922  -0.000343   0.328195   0.000907   0.002808
    28  H    0.000014   0.001816  -0.000103  -0.059770   0.000039  -0.000505
    29  N    0.000611   0.000018   0.000007  -0.000006   0.000001  -0.000001
    30  N   -0.005936   0.000744  -0.000004   0.000282   0.000001  -0.000010
    31  O   -0.024503   0.000623  -0.000056  -0.000015   0.000373  -0.008980
    32  O   -0.000064   0.102619  -0.024982  -0.012856   0.000322  -0.002089
    33  H   -0.000006  -0.004691   0.000586  -0.000075  -0.000060   0.000129
    34  H    0.000012  -0.004644   0.000407   0.000215  -0.000026   0.000122
              25         26         27         28         29         30
     1  O   -0.000005  -0.000000  -0.000063   0.000000   0.000000   0.000000
     2  O    0.000216   0.000001   0.001588  -0.000016  -0.000000  -0.000005
     3  C   -0.000019  -0.000000   0.000391   0.000037  -0.000000  -0.000002
     4  H   -0.000000   0.000000   0.000085   0.000000  -0.000000  -0.000000
     5  O    0.001121   0.000024   0.000594   0.000005   0.000000  -0.000000
     6  O   -0.000057   0.000000  -0.000015  -0.000000   0.000000  -0.000000
     7  C    0.000304   0.000015  -0.000054   0.000000  -0.000000  -0.000000
     8  H    0.000042   0.000001  -0.000000   0.000000   0.000000  -0.000000
     9  O    0.002431  -0.000085   0.346474  -0.059017   0.000045  -0.002920
    10  O   -0.000031  -0.000000   0.000089   0.000003  -0.000000  -0.000000
    11  O    0.000854   0.000004  -0.001580  -0.000129   0.000000  -0.000000
    12  C   -0.000067   0.000001   0.000420   0.000081   0.000000  -0.000000
    13  H    0.000001   0.000000   0.000035   0.000003   0.000000  -0.000000
    14  O    0.001657  -0.000079   0.000701   0.000002  -0.000010  -0.000005
    15  O   -0.000052  -0.000001  -0.000035  -0.000000   0.000000  -0.000000
    16  C    0.000345   0.000108   0.000037   0.000002  -0.000002   0.000000
    17  H    0.000049  -0.000001   0.000002   0.000000  -0.000000  -0.000000
    18  Fe  -0.012426   0.001673  -0.008459   0.002683  -0.000059  -0.000263
    19  O    0.375611  -0.055034   0.008208   0.000014   0.000611  -0.005936
    20  Fe  -0.007554   0.002663  -0.020922   0.001816   0.000018   0.000744
    21  O    0.330910  -0.064305  -0.000343  -0.000103   0.000007  -0.000004
    22  O    0.001149  -0.000272   0.328195  -0.059770  -0.000006   0.000282
    23  Fe   0.000399   0.000017   0.000907   0.000039   0.000001   0.000001
    24  O   -0.000043  -0.000505   0.002808  -0.000505  -0.000001  -0.000010
    25  C    4.200130   0.414565  -0.001040   0.000402   0.000176  -0.000937
    26  H    0.414565   0.649193   0.000407  -0.000001   0.000062   0.000138
    27  C   -0.001040   0.000407   4.241858   0.413455  -0.000073  -0.010312
    28  H    0.000402  -0.000001   0.413455   0.641156  -0.000048   0.001740
    29  N    0.000176   0.000062  -0.000073  -0.000048   6.626204   0.391243
    30  N   -0.000937   0.000138  -0.010312   0.001740   0.391243   6.616314
    31  O    0.001416   0.000075   0.001054   0.000034  -0.003334   0.000975
    32  O    0.000144  -0.000014  -0.001770  -0.000049   0.000000   0.000000
    33  H   -0.000035  -0.000002   0.000151   0.000006   0.000000  -0.000000
    34  H    0.000038   0.000005   0.000078   0.000001  -0.000000  -0.000000
              31         32         33         34
     1  O   -0.000057  -0.000000  -0.000000  -0.000000
     2  O   -0.024108  -0.000000  -0.000000  -0.000000
     3  C    0.000497  -0.000001   0.000000   0.000000
     4  H    0.000094  -0.000000  -0.000000   0.000000
     5  O   -0.000000  -0.029306   0.001233   0.004385
     6  O   -0.000000  -0.000076  -0.000000   0.000076
     7  C   -0.000000   0.001057   0.000004   0.000612
     8  H   -0.000000   0.000052   0.000006  -0.000128
     9  O   -0.027457  -0.000005  -0.000003  -0.000002
    10  O   -0.000000  -0.000044   0.000101   0.000001
    11  O   -0.000000  -0.031200   0.006139   0.000757
    12  C    0.000001   0.000718   0.000551   0.000065
    13  H   -0.000000  -0.000056  -0.000197   0.000014
    14  O   -0.026826  -0.000000  -0.000000   0.000000
    15  O   -0.000034   0.000000  -0.000000  -0.000000
    16  C    0.001363  -0.000002   0.000000   0.000000
    17  H    0.000049  -0.000000   0.000000  -0.000000
    18  Fe   0.198908   0.000056  -0.000012  -0.000009
    19  O   -0.024503  -0.000064  -0.000006   0.000012
    20  Fe   0.000623   0.102619  -0.004691  -0.004644
    21  O   -0.000056  -0.024982   0.000586   0.000407
    22  O   -0.000015  -0.012856  -0.000075   0.000215
    23  Fe   0.000373   0.000322  -0.000060  -0.000026
    24  O   -0.008980  -0.002089   0.000129   0.000122
    25  C    0.001416   0.000144  -0.000035   0.000038
    26  H    0.000075  -0.000014  -0.000002   0.000005
    27  C    0.001054  -0.001770   0.000151   0.000078
    28  H    0.000034  -0.000049   0.000006   0.000001
    29  N   -0.003334   0.000000   0.000000  -0.000000
    30  N    0.000975   0.000000  -0.000000  -0.000000
    31  O    8.346245  -0.000000  -0.000000   0.000000
    32  O   -0.000000   7.938150   0.301545   0.303460
    33  H   -0.000000   0.301545   0.334228  -0.010271
    34  H    0.000000   0.303460  -0.010271   0.327277
          Atomic-Atomic Spin Densities.
               1          2          3          4          5          6
     1  O    0.169265  -0.000481  -0.003367  -0.002528  -0.000003   0.000700
     2  O   -0.000481   0.105243  -0.007642  -0.001647   0.000001  -0.000002
     3  C   -0.003367  -0.007642   0.014511  -0.001273  -0.000002  -0.000141
     4  H   -0.002528  -0.001647  -0.001273   0.023916   0.000000   0.000003
     5  O   -0.000003   0.000001  -0.000002   0.000000  -0.095418   0.000036
     6  O    0.000700  -0.000002  -0.000141   0.000003   0.000036   0.122005
     7  C   -0.000131   0.000000   0.000045  -0.000001  -0.002624  -0.001059
     8  H    0.000004   0.000000  -0.000001   0.000000  -0.000797  -0.000610
     9  O   -0.000021  -0.003910   0.000549  -0.000045  -0.000001  -0.000000
    10  O   -0.004586  -0.000014   0.000586  -0.000050   0.000023  -0.004574
    11  O    0.000033   0.000007  -0.000026   0.000001   0.001845  -0.000025
    12  C    0.000451  -0.000031   0.000131  -0.000004  -0.001247   0.000507
    13  H   -0.000066   0.000000   0.000017  -0.000003   0.000060  -0.000066
    14  O   -0.000107  -0.003896   0.000611  -0.000059   0.000008   0.000009
    15  O   -0.006011  -0.000477   0.001681  -0.000173   0.000044  -0.004485
    16  C    0.000660   0.000794  -0.000084   0.000045  -0.000030   0.000505
    17  H   -0.000064  -0.000157   0.000071  -0.000016   0.000001  -0.000097
    18  Fe   0.000955  -0.036012   0.001533  -0.000498   0.000002   0.000004
    19  O   -0.000001   0.000142  -0.000035   0.000001  -0.000028  -0.000005
    20  Fe  -0.000174  -0.000255   0.000015  -0.000010   0.042524  -0.002100
    21  O   -0.000000   0.000001   0.000000  -0.000000   0.002964  -0.000031
    22  O   -0.000001   0.000019  -0.000007   0.000000  -0.000670  -0.000005
    23  Fe  -0.039342   0.003020  -0.008431   0.000144   0.003851  -0.037700
    24  O   -0.005455   0.000954   0.001094  -0.000148   0.002919  -0.004226
    25  C   -0.000002  -0.000019   0.000004  -0.000000  -0.000356  -0.000005
    26  H   -0.000000   0.000001  -0.000000   0.000000   0.000034  -0.000001
    27  C    0.000003   0.000585  -0.000124   0.000017   0.000095  -0.000001
    28  H    0.000000  -0.000038   0.000010  -0.000002  -0.000004  -0.000000
    29  N    0.000000  -0.000000   0.000000  -0.000000   0.000000   0.000000
    30  N   -0.000000  -0.000001  -0.000000   0.000000  -0.000000  -0.000000
    31  O    0.000012  -0.003239   0.000275  -0.000059  -0.000000  -0.000000
    32  O   -0.000000  -0.000000  -0.000000  -0.000000   0.000731  -0.000011
    33  H   -0.000000   0.000000   0.000000   0.000000  -0.000195   0.000002
    34  H    0.000000   0.000000  -0.000000   0.000000  -0.000633  -0.000010
               7          8          9         10         11         12
     1  O   -0.000131   0.000004  -0.000021  -0.004586   0.000033   0.000451
     2  O    0.000000   0.000000  -0.003910  -0.000014   0.000007  -0.000031
     3  C    0.000045  -0.000001   0.000549   0.000586  -0.000026   0.000131
     4  H   -0.000001   0.000000  -0.000045  -0.000050   0.000001  -0.000004
     5  O   -0.002624  -0.000797  -0.000001   0.000023   0.001845  -0.001247
     6  O   -0.001059  -0.000610  -0.000000  -0.004574  -0.000025   0.000507
     7  C    0.004748   0.002028   0.000002   0.001278  -0.000423   0.000334
     8  H    0.002028   0.000631  -0.000000  -0.000107   0.000040  -0.000025
     9  O    0.000002  -0.000000   0.053315  -0.000013  -0.000052   0.000031
    10  O    0.001278  -0.000107  -0.000013   0.107201  -0.000442   0.002742
    11  O   -0.000423   0.000040  -0.000052  -0.000442  -0.105242  -0.002462
    12  C    0.000334  -0.000025   0.000031   0.002742  -0.002462   0.003539
    13  H   -0.000001  -0.000004  -0.000001   0.000414   0.000156  -0.000698
    14  O   -0.000045   0.000001   0.000093   0.000001   0.000001   0.000001
    15  O    0.000525  -0.000049   0.000001   0.000852   0.000003  -0.000098
    16  C    0.000151  -0.000001  -0.000062  -0.000126  -0.000005   0.000018
    17  H    0.000013  -0.000004   0.000001   0.000004  -0.000000  -0.000001
    18  Fe  -0.000012   0.000002  -0.028440   0.000130   0.000027  -0.000094
    19  O    0.000011  -0.000000  -0.004062  -0.000000   0.000000  -0.000001
    20  Fe  -0.000874  -0.000246  -0.004157  -0.002659   0.040141   0.000204
    21  O   -0.000467   0.000047  -0.000009  -0.000006  -0.000765   0.000133
    22  O    0.000101  -0.000003   0.000565  -0.000043   0.003579  -0.000293
    23  Fe  -0.006660   0.000222  -0.000228  -0.041769   0.003776  -0.004601
    24  O    0.000229  -0.000072   0.001718  -0.003812   0.002993   0.000280
    25  C    0.000037  -0.000022   0.000625  -0.000005   0.000120  -0.000012
    26  H   -0.000009   0.000001  -0.000044  -0.000000  -0.000003   0.000001
    27  C   -0.000009   0.000001   0.001508   0.000019  -0.000790   0.000018
    28  H    0.000001  -0.000000   0.001226  -0.000001   0.000058  -0.000022
    29  N    0.000000   0.000000   0.000037  -0.000000  -0.000000   0.000000
    30  N    0.000000  -0.000000   0.000115   0.000000  -0.000000  -0.000000
    31  O    0.000001  -0.000000  -0.001291  -0.000000   0.000000   0.000000
    32  O   -0.000355   0.000016   0.000000  -0.000018   0.002067  -0.000269
    33  H   -0.000030  -0.000010   0.000001  -0.000006  -0.001000   0.000008
    34  H    0.000033  -0.000005   0.000002   0.000005  -0.000045  -0.000031
              13         14         15         16         17         18
     1  O   -0.000066  -0.000107  -0.006011   0.000660  -0.000064   0.000955
     2  O    0.000000  -0.003896  -0.000477   0.000794  -0.000157  -0.036012
     3  C    0.000017   0.000611   0.001681  -0.000084   0.000071   0.001533
     4  H   -0.000003  -0.000059  -0.000173   0.000045  -0.000016  -0.000498
     5  O    0.000060   0.000008   0.000044  -0.000030   0.000001   0.000002
     6  O   -0.000066   0.000009  -0.004485   0.000505  -0.000097   0.000004
     7  C   -0.000001  -0.000045   0.000525   0.000151   0.000013  -0.000012
     8  H   -0.000004   0.000001  -0.000049  -0.000001  -0.000004   0.000002
     9  O   -0.000001   0.000093   0.000001  -0.000062   0.000001  -0.028440
    10  O    0.000414   0.000001   0.000852  -0.000126   0.000004   0.000130
    11  O    0.000156   0.000001   0.000003  -0.000005  -0.000000   0.000027
    12  C   -0.000698   0.000001  -0.000098   0.000018  -0.000001  -0.000094
    13  H   -0.000317   0.000000   0.000004  -0.000001   0.000000   0.000004
    14  O    0.000000   0.092358  -0.001500  -0.004789  -0.001408  -0.028003
    15  O    0.000004  -0.001500   0.160363  -0.001726  -0.002560   0.001106
    16  C   -0.000001  -0.004789  -0.001726   0.010287  -0.002609   0.000246
    17  H    0.000000  -0.001408  -0.002560  -0.002609   0.023151  -0.000326
    18  Fe   0.000004  -0.028003   0.001106   0.000246  -0.000326   3.487865
    19  O   -0.000000  -0.004008  -0.000022   0.000449  -0.000054  -0.038891
    20  Fe  -0.000075  -0.000245   0.000038  -0.000067  -0.000006  -0.002292
    21  O   -0.000004   0.000039   0.000003  -0.000028   0.000001   0.000789
    22  O    0.000034   0.000003  -0.000000   0.000000  -0.000000   0.001358
    23  Fe   0.000126   0.003694  -0.046157  -0.005850  -0.000122  -0.001647
    24  O   -0.000018   0.000409  -0.005273   0.000269  -0.000211  -0.010867
    25  C    0.000001   0.000758   0.000006  -0.000181   0.000007   0.002890
    26  H   -0.000000  -0.000066   0.000000   0.000024  -0.000005  -0.000152
    27  C   -0.000009  -0.000040  -0.000002   0.000014  -0.000000   0.000004
    28  H    0.000003   0.000002   0.000000  -0.000000   0.000000  -0.000092
    29  N   -0.000000   0.000000   0.000000  -0.000000   0.000000  -0.000153
    30  N   -0.000000  -0.000001  -0.000000   0.000000   0.000000  -0.000758
    31  O   -0.000000  -0.002004  -0.000001   0.000196  -0.000084  -0.140403
    32  O    0.000035  -0.000000  -0.000000   0.000000  -0.000000   0.000032
    33  H   -0.000048   0.000000   0.000000  -0.000000   0.000000  -0.000007
    34  H   -0.000006  -0.000000  -0.000000   0.000000  -0.000000  -0.000008
              19         20         21         22         23         24
     1  O   -0.000001  -0.000174  -0.000000  -0.000001  -0.039342  -0.005455
     2  O    0.000142  -0.000255   0.000001   0.000019   0.003020   0.000954
     3  C   -0.000035   0.000015   0.000000  -0.000007  -0.008431   0.001094
     4  H    0.000001  -0.000010  -0.000000   0.000000   0.000144  -0.000148
     5  O   -0.000028   0.042524   0.002964  -0.000670   0.003851   0.002919
     6  O   -0.000005  -0.002100  -0.000031  -0.000005  -0.037700  -0.004226
     7  C    0.000011  -0.000874  -0.000467   0.000101  -0.006660   0.000229
     8  H   -0.000000  -0.000246   0.000047  -0.000003   0.000222  -0.000072
     9  O   -0.004062  -0.004157  -0.000009   0.000565  -0.000228   0.001718
    10  O   -0.000000  -0.002659  -0.000006  -0.000043  -0.041769  -0.003812
    11  O    0.000000   0.040141  -0.000765   0.003579   0.003776   0.002993
    12  C   -0.000001   0.000204   0.000133  -0.000293  -0.004601   0.000280
    13  H   -0.000000  -0.000075  -0.000004   0.000034   0.000126  -0.000018
    14  O   -0.004008  -0.000245   0.000039   0.000003   0.003694   0.000409
    15  O   -0.000022   0.000038   0.000003  -0.000000  -0.046157  -0.005273
    16  C    0.000449  -0.000067  -0.000028   0.000000  -0.005850   0.000269
    17  H   -0.000054  -0.000006   0.000001  -0.000000  -0.000122  -0.000211
    18  Fe  -0.038891  -0.002292   0.000789   0.001358  -0.001647  -0.010867
    19  O    0.076798  -0.003579  -0.000131   0.000116  -0.000194   0.001431
    20  Fe  -0.003579  -4.521703   0.045042   0.050625   0.000169   0.097334
    21  O   -0.000131   0.045042  -0.156640   0.004837  -0.000043   0.003526
    22  O    0.000116   0.050625   0.004837  -0.161458  -0.000225   0.003013
    23  Fe  -0.000194   0.000169  -0.000043  -0.000225   4.507164  -0.125523
    24  O    0.001431   0.097334   0.003526   0.003013  -0.125523   0.103855
    25  C    0.000675   0.003240  -0.000433  -0.001508   0.000034  -0.002486
    26  H    0.001468  -0.000390   0.001199   0.000134  -0.000008   0.000066
    27  C    0.000544   0.003960  -0.000835  -0.001665   0.000022  -0.000291
    28  H   -0.000138  -0.000251   0.000036   0.000517  -0.000017   0.000176
    29  N    0.000096  -0.000008   0.000000   0.000001  -0.000000  -0.000000
    30  N    0.000165  -0.000003   0.000001  -0.000005   0.000000  -0.000004
    31  O   -0.002036  -0.000385   0.000037   0.000080   0.000074  -0.000447
    32  O   -0.000002   0.029294   0.003751   0.002309   0.000070  -0.001079
    33  H    0.000003   0.001378   0.000146  -0.000121  -0.000007   0.000124
    34  H   -0.000002   0.001318  -0.000521   0.000104  -0.000008   0.000115
              25         26         27         28         29         30
     1  O   -0.000002  -0.000000   0.000003   0.000000   0.000000  -0.000000
     2  O   -0.000019   0.000001   0.000585  -0.000038  -0.000000  -0.000001
     3  C    0.000004  -0.000000  -0.000124   0.000010   0.000000  -0.000000
     4  H   -0.000000   0.000000   0.000017  -0.000002  -0.000000   0.000000
     5  O   -0.000356   0.000034   0.000095  -0.000004   0.000000  -0.000000
     6  O   -0.000005  -0.000001  -0.000001  -0.000000   0.000000  -0.000000
     7  C    0.000037  -0.000009  -0.000009   0.000001   0.000000   0.000000
     8  H   -0.000022   0.000001   0.000001  -0.000000   0.000000  -0.000000
     9  O    0.000625  -0.000044   0.001508   0.001226   0.000037   0.000115
    10  O   -0.000005  -0.000000   0.000019  -0.000001  -0.000000   0.000000
    11  O    0.000120  -0.000003  -0.000790   0.000058  -0.000000  -0.000000
    12  C   -0.000012   0.000001   0.000018  -0.000022   0.000000  -0.000000
    13  H    0.000001  -0.000000  -0.000009   0.000003  -0.000000  -0.000000
    14  O    0.000758  -0.000066  -0.000040   0.000002   0.000000  -0.000001
    15  O    0.000006   0.000000  -0.000002   0.000000   0.000000  -0.000000
    16  C   -0.000181   0.000024   0.000014  -0.000000  -0.000000   0.000000
    17  H    0.000007  -0.000005  -0.000000   0.000000   0.000000   0.000000
    18  Fe   0.002890  -0.000152   0.000004  -0.000092  -0.000153  -0.000758
    19  O    0.000675   0.001468   0.000544  -0.000138   0.000096   0.000165
    20  Fe   0.003240  -0.000390   0.003960  -0.000251  -0.000008  -0.000003
    21  O   -0.000433   0.001199  -0.000835   0.000036   0.000000   0.000001
    22  O   -0.001508   0.000134  -0.001665   0.000517   0.000001  -0.000005
    23  Fe   0.000034  -0.000008   0.000022  -0.000017  -0.000000   0.000000
    24  O   -0.002486   0.000066  -0.000291   0.000176  -0.000000  -0.000004
    25  C    0.004701  -0.002588   0.000209   0.000032  -0.000011   0.000013
    26  H   -0.002588  -0.003705  -0.000025  -0.000002  -0.000003   0.000013
    27  C    0.000209  -0.000025  -0.001829   0.000008  -0.000007   0.000126
    28  H    0.000032  -0.000002   0.000008  -0.008140   0.000001   0.000051
    29  N   -0.000011  -0.000003  -0.000007   0.000001  -0.005204   0.003529
    30  N    0.000013   0.000013   0.000126   0.000051   0.003529  -0.000694
    31  O    0.000694  -0.000036   0.000627  -0.000045   0.000189   0.000253
    32  O   -0.000100   0.000046   0.000012   0.000036  -0.000000  -0.000000
    33  H   -0.000020  -0.000000   0.000006  -0.000007   0.000000   0.000000
    34  H    0.000038  -0.000012  -0.000013  -0.000001   0.000000   0.000000
              31         32         33         34
     1  O    0.000012  -0.000000  -0.000000   0.000000
     2  O   -0.003239  -0.000000   0.000000   0.000000
     3  C    0.000275  -0.000000   0.000000  -0.000000
     4  H   -0.000059  -0.000000   0.000000   0.000000
     5  O   -0.000000   0.000731  -0.000195  -0.000633
     6  O   -0.000000  -0.000011   0.000002  -0.000010
     7  C    0.000001  -0.000355  -0.000030   0.000033
     8  H   -0.000000   0.000016  -0.000010  -0.000005
     9  O   -0.001291   0.000000   0.000001   0.000002
    10  O   -0.000000  -0.000018  -0.000006   0.000005
    11  O    0.000000   0.002067  -0.001000  -0.000045
    12  C    0.000000  -0.000269   0.000008  -0.000031
    13  H   -0.000000   0.000035  -0.000048  -0.000006
    14  O   -0.002004  -0.000000   0.000000  -0.000000
    15  O   -0.000001  -0.000000   0.000000  -0.000000
    16  C    0.000196   0.000000  -0.000000   0.000000
    17  H   -0.000084  -0.000000   0.000000  -0.000000
    18  Fe  -0.140403   0.000032  -0.000007  -0.000008
    19  O   -0.002036  -0.000002   0.000003  -0.000002
    20  Fe  -0.000385   0.029294   0.001378   0.001318
    21  O    0.000037   0.003751   0.000146  -0.000521
    22  O    0.000080   0.002309  -0.000121   0.000104
    23  Fe   0.000074   0.000070  -0.000007  -0.000008
    24  O   -0.000447  -0.001079   0.000124   0.000115
    25  C    0.000694  -0.000100  -0.000020   0.000038
    26  H   -0.000036   0.000046  -0.000000  -0.000012
    27  C    0.000627   0.000012   0.000006  -0.000013
    28  H   -0.000045   0.000036  -0.000007  -0.000001
    29  N    0.000189  -0.000000   0.000000   0.000000
    30  N    0.000253  -0.000000   0.000000   0.000000
    31  O    0.728420  -0.000000   0.000000   0.000000
    32  O   -0.000000  -0.073083   0.000328   0.000229
    33  H    0.000000   0.000328  -0.000783  -0.000039
    34  H    0.000000   0.000229  -0.000039  -0.000988
 Mulliken charges and spin densities:
               1          2
     1  O   -0.549171   0.109745
     2  O   -0.516638   0.052946
     3  C    0.690109  -0.000002
     4  H    0.053043   0.017612
     5  O   -0.585718  -0.046869
     6  O   -0.535723   0.068619
     7  C    0.695954  -0.003165
     8  H    0.050747   0.001038
     9  O   -0.491675   0.017453
    10  O   -0.543604   0.055024
    11  O   -0.594319  -0.056434
    12  C    0.688934  -0.001492
    13  H    0.050804  -0.000465
    14  O   -0.491849   0.051818
    15  O   -0.557243   0.096091
    16  C    0.680647  -0.001901
    17  H    0.053969   0.015526
    18  Fe   1.006826   3.208292
    19  O   -0.527222   0.028709
    20  Fe   0.992618  -4.224196
    21  O   -0.560529  -0.097358
    22  O   -0.562610  -0.098609
    23  Fe   0.997796   4.203835
    24  O   -0.702499   0.060592
    25  C    0.690306   0.006335
[...]
 Hirshfeld charges and spin densities with hydrogens summed into heavy atoms:
              Q-H        S-H       Q-CM5   
     1  O   -0.232550   0.126960  -0.342393
     2  O   -0.207199   0.067403  -0.303235
     3  C    0.247379   0.031172   0.331535
     5  O   -0.239651  -0.066590  -0.338922
     6  O   -0.225867   0.090762  -0.330315
     7  C    0.240686   0.003823   0.325395
     9  O   -0.194779   0.036541  -0.296699
    10  O   -0.225550   0.080604  -0.326897
    11  O   -0.238245  -0.074998  -0.341382
    12  C    0.239892   0.001751   0.324935
    14  O   -0.198521   0.064474  -0.300710
    15  O   -0.230319   0.116578  -0.338441
    16  C    0.251112   0.026835   0.335922
    18  Fe   0.448700   3.157198   0.876424
    19  O   -0.206402   0.047673  -0.302105
    20  Fe   0.528878  -4.071990   0.885320
    21  O   -0.234766  -0.113969  -0.344227
    22  O   -0.225146  -0.118954  -0.336179
    23  Fe   0.565772   4.050896   0.917056
    24  O   -0.313818   0.071866  -0.536894
    25  C    0.244308  -0.005645   0.329466
    27  C    0.252221  -0.012112   0.338011
    29  N    0.007666   0.000623   0.006691
    30  N    0.001074   0.000749  -0.001716
    31  O   -0.231665   0.544938  -0.385319
    32  O    0.176772  -0.056580   0.154663
         Hirshfeld charges and spin densities condensed to fragments:
      1     -1.183396      0.302308
      2      0.008740      0.001371
      3     -0.313818      0.071866
      4      0.448700      3.157198
      5      0.528878     -4.071990
      6      0.565772      4.050896
      7     -0.231665      0.544938
      8      0.176772     -0.056580
 
 EQQ= -1.32332924706     EQD=-0.760206017156E-02 EDD= 0.299391421068E-02
 EQQ+QD+DD= -1.32793739302    
 
                          Isotropic Fermi Contact Couplings
        Atom                 a.u.       MegaHertz       Gauss      10(-4) cm-1
     1  O(17)              0.09191     -13.92847      -4.97003      -4.64604
     2  O(17)              0.09264     -14.03958      -5.00967      -4.68310
     3  C(13)             -0.00234      -0.65657      -0.23428      -0.21901
     4  H(1)               0.00782       8.73967       3.11853       2.91524
     5  O(17)             -0.09262      14.03721       5.00883       4.68231
     6  O(17)              0.08101     -12.27750      -4.38092      -4.09533
     7  C(13)             -0.00026      -0.07426      -0.02650      -0.02477
     8  H(1)               0.00065       0.72330       0.25809       0.24127
     9  O(17)              0.05969      -9.04528      -3.22758      -3.01718
    10  O(17)              0.09508     -14.40930      -5.14160      -4.80642
    11  O(17)             -0.08334      12.63006       4.50672       4.21294
    12  C(13)              0.00245       0.68771       0.24539       0.22940
    13  H(1)              -0.00027      -0.30477      -0.10875      -0.10166
    14  O(17)              0.07096     -10.75337      -3.83707      -3.58694
    15  O(17)              0.10837     -16.42363      -5.86036      -5.47833
    16  C(13)             -0.00258      -0.72556      -0.25890      -0.24202
    17  H(1)               0.00655       7.32045       2.61212       2.44184
    18  Fe(57)             0.23031       8.35095       2.97983       2.78558
    19  O(17)              0.08642     -13.09615      -4.67303      -4.36841
    20  Fe(57)            -0.57284     -20.77119      -7.41168      -6.92852
    21  O(17)             -0.10037      15.21127       5.42776       5.07393
    22  O(17)             -0.11702      17.73497       6.32828       5.91575
    23  Fe(57)             0.63042      22.85895       8.15664       7.62493
    24  O(17)              0.01395      -2.11471      -0.75458      -0.70539
    25  C(13)              0.00328       0.92102       0.32864       0.30722
    26  H(1)              -0.00223      -2.48956      -0.88834      -0.83043
    27  C(13)              0.00185       0.51966       0.18543       0.17334
    28  H(1)              -0.00308      -3.44715      -1.23003      -1.14985
    29  N(14)              0.00086       0.06960       0.02483       0.02321
    30  N(14)              0.00040       0.03256       0.01162       0.01086
    31  O(17)              0.12749     -19.32050      -6.89404      -6.44463
    32  O(17)             -0.06001       9.09478       3.24524       3.03369
    33  H(1)               0.00027       0.30558       0.10904       0.10193
    34  H(1)               0.00016       0.17331       0.06184       0.05781
 --------------------------------------------------------
       Center         ----  Spin Dipole Couplings  ----
                      3XX-RR        3YY-RR        3ZZ-RR
 --------------------------------------------------------
     1   Atom       -0.238650      0.069539      0.169111
     2   Atom       -0.105546      0.043937      0.061609
     3   Atom        0.021391     -0.014911     -0.006480
     4   Atom       -0.005839     -0.000040      0.005879
     5   Atom       -0.087871      0.131833     -0.043962
     6   Atom        0.064261     -0.150020      0.085759
     7   Atom       -0.047276      0.045440      0.001836
     8   Atom       -0.015181      0.014122      0.001059
     9   Atom       -0.047409     -0.077007      0.124416
    10   Atom       -0.035100     -0.087853      0.122953
    11   Atom        0.041389      0.154243     -0.195632
    12   Atom       -0.041690      0.047777     -0.006087
    13   Atom       -0.012826      0.015461     -0.002635
    14   Atom       -0.100342     -0.025257      0.125599
    15   Atom       -0.171555      0.063743      0.107812
    16   Atom        0.024245     -0.037218      0.012973
    17   Atom       -0.004635     -0.008668      0.013303
    18   Atom       -1.494951      0.019639      1.475312
    19   Atom       -0.067042     -0.047185      0.114227
    20   Atom       -0.086824      0.181960     -0.095135
    21   Atom        0.090095      0.180414     -0.270509
    22   Atom       -0.081484      0.171463     -0.089978
    23   Atom       -0.092187      0.037181      0.055006
    24   Atom        0.302674     -0.324243      0.021569
    25   Atom       -0.028915      0.034863     -0.005948
    26   Atom       -0.009000      0.014001     -0.005000
    27   Atom       -0.021623      0.026989     -0.005365
    28   Atom       -0.009925      0.012849     -0.002924
    29   Atom        0.011321     -0.004506     -0.006815
    30   Atom        0.008101     -0.000375     -0.007727
    31   Atom       -1.144995      0.051060      1.093935
    32   Atom        0.124059     -0.270016      0.145957
    33   Atom        0.022830     -0.042065      0.019235
    34   Atom        0.026948     -0.039707      0.012759
 --------------------------------------------------------
                        XY            XZ            YZ
 --------------------------------------------------------
     1   Atom       -0.076562     -0.042028      0.284709
     2   Atom       -0.058990     -0.026147      0.146529
     3   Atom        0.024668     -0.002071      0.042230
     4   Atom        0.003613     -0.000163      0.022907
     5   Atom       -0.096658     -0.199751     -0.086687
     6   Atom        0.148767      0.238282      0.125309
     7   Atom        0.039398     -0.015809      0.050718
     8   Atom        0.013440     -0.003413      0.016546
     9   Atom       -0.094528      0.136113     -0.098307
    10   Atom        0.115851     -0.190184     -0.148652
    11   Atom       -0.090668      0.195641      0.119124
    12   Atom        0.020019      0.034233     -0.051779
    13   Atom        0.008287      0.008555     -0.017718
    14   Atom       -0.026007      0.040891     -0.121848
    15   Atom       -0.045123      0.098957     -0.253283
    16   Atom        0.004391     -0.013107     -0.037335
    17   Atom       -0.000627      0.001463     -0.020319
    18   Atom       -2.026248      0.068898      0.336719
    19   Atom       -0.099946     -0.147366      0.124017
    20   Atom        0.034571     -0.017542     -0.006551
    21   Atom        0.108143      0.221527     -0.123064
    22   Atom        0.119297     -0.219593      0.131142
    23   Atom        0.057068     -0.009851     -0.034915
    24   Atom       -0.164634      0.014026      0.026248
    25   Atom       -0.030964      0.040772      0.048030
    26   Atom       -0.009921      0.010342      0.017603
    27   Atom       -0.036260     -0.027676     -0.058478
    28   Atom       -0.012638     -0.009197     -0.018039
    29   Atom       -0.010762     -0.001999      0.001088
    30   Atom       -0.017606      0.001198     -0.000696
    31   Atom       -1.587778      0.163314      0.097449
    32   Atom        0.002187     -0.003820     -0.003896
    33   Atom       -0.030441      0.015426      0.025744
    34   Atom       -0.024854     -0.015156     -0.031162
 --------------------------------------------------------


 ---------------------------------------------------------------------------------
              Anisotropic Spin Dipole Couplings in Principal Axis System
 ---------------------------------------------------------------------------------

       Atom             a.u.   MegaHertz   Gauss  10(-4) cm-1        Axes

              Baa    -0.2597    18.789     6.704     6.267  0.9374  0.3254 -0.1242
     1 O(17)  Bbb    -0.1588    11.491     4.100     3.833 -0.3258  0.6928 -0.6433
              Bcc     0.4185   -30.280   -10.805   -10.100 -0.1233  0.6435  0.7555
 
              Baa    -0.1325     9.586     3.421     3.198  0.8289  0.4945 -0.2616
     2 O(17)  Bbb    -0.0783     5.669     2.023     1.891  0.5276 -0.5356  0.6594
              Bcc     0.2108   -15.255    -5.443    -5.088 -0.1859  0.6846  0.7048
 
              Baa    -0.0582    -7.805    -2.785    -2.603 -0.2473  0.7454 -0.6190
     3 C(13)  Bbb     0.0142     1.912     0.682     0.638  0.7408 -0.2663 -0.6166
              Bcc     0.0439     5.893     2.103     1.966  0.6245  0.6111  0.4864
 
              Baa    -0.0207   -11.054    -3.944    -3.687 -0.1876  0.7437 -0.6417
     4 H(1)   Bbb    -0.0055    -2.914    -1.040    -0.972  0.9797  0.0945 -0.1769
              Bcc     0.0262    13.967     4.984     4.659  0.0709  0.6618  0.7463
 
              Baa    -0.3054    22.100     7.886     7.372  0.7139  0.2846  0.6398
     5 O(17)  Bbb     0.1350    -9.771    -3.487    -3.259 -0.6677  0.0014  0.7444
              Bcc     0.1704   -12.329    -4.399    -4.112 -0.2110  0.9586 -0.1910
 
              Baa    -0.2263    16.374     5.843     5.462 -0.4390  0.8981 -0.0254
     6 O(17)  Bbb    -0.1574    11.391     4.064     3.800 -0.6108 -0.2776  0.7415
              Bcc     0.3837   -27.765    -9.907    -9.261  0.6589  0.3411  0.6704
 
              Baa    -0.0775   -10.400    -3.711    -3.469  0.7905 -0.4323  0.4339
     7 C(13)  Bbb    -0.0062    -0.833    -0.297    -0.278 -0.5801 -0.3009  0.7570
              Bcc     0.0837    11.233     4.008     3.747  0.1967  0.8500  0.4886
 
              Baa    -0.0244   -13.042    -4.654    -4.350  0.7993 -0.4496  0.3987
     8 H(1)   Bbb    -0.0031    -1.632    -0.582    -0.544 -0.5574 -0.3069  0.7714
              Bcc     0.0275    14.673     5.236     4.895  0.2245  0.8388  0.4959
 
              Baa    -0.1593    11.524     4.112     3.844  0.7097  0.6975 -0.0988
     9 O(17)  Bbb    -0.0934     6.757     2.411     2.254 -0.5172  0.6112  0.5991
              Bcc     0.2526   -18.281    -6.523    -6.098  0.4783 -0.3741  0.7945
 
              Baa    -0.1804    13.053     4.658     4.354 -0.6555  0.7540 -0.0415
    10 O(17)  Bbb    -0.1534    11.097     3.960     3.701  0.5510  0.5152  0.6565
              Bcc     0.3337   -24.150    -8.617    -8.055 -0.5164 -0.4075  0.7532
 
              Baa    -0.3496    25.295     9.026     8.438 -0.4809 -0.2828  0.8299
    11 O(17)  Bbb     0.1444   -10.451    -3.729    -3.486  0.7645  0.3283  0.5548
              Bcc     0.2051   -14.844    -5.297    -4.951 -0.4294  0.9012  0.0583
 
              Baa    -0.0793   -10.643    -3.798    -3.550  0.7254 -0.3546 -0.5899
    12 C(13)  Bbb     0.0001     0.013     0.005     0.004  0.6883  0.3813  0.6172
              Bcc     0.0792    10.630     3.793     3.546 -0.0061  0.8537 -0.5207
 
              Baa    -0.0248   -13.257    -4.730    -4.422  0.6987 -0.4034 -0.5909
    13 H(1)   Bbb    -0.0016    -0.880    -0.314    -0.294  0.7118  0.3086  0.6310
              Bcc     0.0265    14.137     5.044     4.716  0.0722  0.8614 -0.5027
 
              Baa    -0.1086     7.858     2.804     2.621  0.9718  0.2305 -0.0497
    14 O(17)  Bbb    -0.0926     6.703     2.392     2.236 -0.1747  0.8454  0.5048
              Bcc     0.2012   -14.561    -5.196    -4.857  0.1584 -0.4818  0.8618
 
              Baa    -0.2151    15.562     5.553     5.191  0.8020 -0.3253 -0.5010
    15 O(17)  Bbb    -0.1451    10.503     3.748     3.503  0.5658  0.6828  0.4623
              Bcc     0.3602   -26.065    -9.301    -8.694  0.1917 -0.6542  0.7316
 
              Baa    -0.0572    -7.672    -2.738    -2.559  0.0288  0.8801  0.4738
    16 C(13)  Bbb     0.0143     1.919     0.685     0.640  0.8057 -0.3010  0.5102
              Bcc     0.0429     5.753     2.053     1.919 -0.5917 -0.3671  0.7178
 
              Baa    -0.0208   -11.089    -3.957    -3.699 -0.0131  0.8586  0.5124
    17 H(1)   Bbb    -0.0047    -2.516    -0.898    -0.839  0.9985  0.0380 -0.0382
              Bcc     0.0255    13.605     4.855     4.538  0.0523 -0.5112  0.8579
 
              Baa    -2.9149   -50.465   -18.007   -16.833  0.8185  0.5717 -0.0567
    18 Fe(57) Bbb     1.2183    21.093     7.526     7.036  0.4617 -0.5959  0.6570
              Bcc     1.6966    29.373    10.481     9.798 -0.3418  0.5640  0.7517
 
              Baa    -0.1641    11.876     4.238     3.961  0.8487  0.4718  0.2391
    19 O(17)  Bbb    -0.1097     7.937     2.832     2.648 -0.2575  0.7635 -0.5923
              Bcc     0.2738   -19.813    -7.070    -6.609 -0.4620  0.4411  0.7694
 
              Baa    -0.1100    -1.905    -0.680    -0.635  0.6587 -0.0612  0.7499
    20 Fe(57) Bbb    -0.0766    -1.326    -0.473    -0.442  0.7416 -0.1159 -0.6608
              Bcc     0.1866     3.231     1.153     1.078  0.1273  0.9914 -0.0310
 
              Baa    -0.4176    30.216    10.782    10.079 -0.4319  0.2561  0.8648
    21 O(17)  Bbb     0.1635   -11.831    -4.222    -3.946  0.6536 -0.5719  0.4958
              Bcc     0.2541   -18.385    -6.560    -6.133  0.6215  0.7793  0.0796
 
              Baa    -0.3640    26.338     9.398     8.785  0.6618 -0.3142  0.6807
    22 O(17)  Bbb     0.1335    -9.660    -3.447    -3.222  0.7295  0.0607 -0.6812
              Bcc     0.2305   -16.678    -5.951    -5.563  0.1727  0.9474  0.2694
 
              Baa    -0.1138    -1.971    -0.703    -0.657  0.9338 -0.3574 -0.0194
    23 Fe(57) Bbb     0.0207     0.359     0.128     0.120  0.2594  0.6383  0.7247
              Bcc     0.0931     1.612     0.575     0.538 -0.2466 -0.6818  0.6887
 
              Baa    -0.3670    26.555     9.476     8.858  0.2395  0.9681 -0.0740
    24 O(17)  Bbb     0.0235    -1.704    -0.608    -0.568 -0.0045  0.0774  0.9970
              Bcc     0.3434   -24.852    -8.868    -8.290  0.9709 -0.2385  0.0229
 
              Baa    -0.0846   -11.357    -4.052    -3.788  0.6762  0.4188 -0.6060
    25 C(13)  Bbb     0.0178     2.393     0.854     0.798  0.7352 -0.3313  0.5914
              Bcc     0.0668     8.964     3.198     2.990 -0.0469  0.8455  0.5319
 
              Baa    -0.0267   -14.229    -5.077    -4.746 -0.6240 -0.4336  0.6501
    26 H(1)   Bbb     0.0018     0.965     0.344     0.322  0.7736 -0.2255  0.5922
              Bcc     0.0249    13.264     4.733     4.425 -0.1102  0.8724  0.4761
 
              Baa    -0.0823   -11.040    -3.939    -3.682  0.5925  0.5241  0.6118
    27 C(13)  Bbb     0.0089     1.199     0.428     0.400  0.7913 -0.2366 -0.5637
              Bcc     0.0733     9.840     3.511     3.282 -0.1507  0.8181 -0.5549
 
              Baa    -0.0274   -14.612    -5.214    -4.874  0.6532  0.4710  0.5929
    28 H(1)   Bbb     0.0017     0.919     0.328     0.307  0.7356 -0.2091 -0.6443
              Bcc     0.0257    13.693     4.886     4.568 -0.1795  0.8570 -0.4830
 
              Baa    -0.0100    -0.384    -0.137    -0.128  0.4495  0.8930 -0.0234
    29 N(14)  Bbb    -0.0070    -0.271    -0.097    -0.090  0.0955 -0.0220  0.9952
              Bcc     0.0170     0.655     0.234     0.218  0.8881 -0.4496 -0.0951
 
              Baa    -0.0143    -0.550    -0.196    -0.183  0.6195  0.7844 -0.0301
    30 N(14)  Bbb    -0.0078    -0.300    -0.107    -0.100 -0.0175  0.0521  0.9985
              Bcc     0.0220     0.850     0.303     0.283  0.7848 -0.6180  0.0460
 
              Baa    -2.2544   163.126    58.207    54.413  0.8211  0.5679 -0.0566
    31 O(17)  Bbb     1.1013   -79.691   -28.436   -26.582 -0.1002  0.2410  0.9653
              Bcc     1.1531   -83.435   -29.772   -27.831 -0.5619  0.7870 -0.2548
 
              Baa    -0.2701    19.542     6.973     6.518 -0.0055  0.9999  0.0093
    32 O(17)  Bbb     0.1234    -8.930    -3.187    -2.979  0.9858  0.0038  0.1678
              Bcc     0.1466   -10.611    -3.786    -3.540 -0.1677 -0.0101  0.9858
 
              Baa    -0.0646   -34.467   -12.299   -11.497  0.3619  0.8704 -0.3339
    33 H(1)   Bbb     0.0270    14.417     5.144     4.809 -0.3593  0.4607  0.8116
              Bcc     0.0376    20.050     7.154     6.688  0.8602 -0.1738  0.4794
 
              Baa    -0.0635   -33.867   -12.085   -11.297  0.3050  0.8588  0.4117
    34 H(1)   Bbb     0.0263    14.033     5.007     4.681  0.2813 -0.4943  0.8225
              Bcc     0.0372    19.834     7.077     6.616  0.9098 -0.1351 -0.3923
 

 ---------------------------------------------------------------------------------

 Unable to Open any file for archive entry.
 1\1\GINC-NODE0064\SP\UM06L\def2TZVP\C6H8Fe3N2O15(5)\SVICCHI\03-Apr-202
 3\0\\# SP Geom=AllCheckpoint um06l/Def2TZVP int=grid=ultrafine scf=(xq
 c,intrep,maxconventionalcycle=1000) pop=(CM5) nosymm guess=read\\FeFeF
 e-B-0xH2O\\0,5\O,0,1.719299,-2.121416,-1.58716\O,0,-0.476982,-2.495739
 ,-1.214444\C,0,0.60347,-2.691674,-1.787175\H,0,0.618079,-3.461158,-2.5
 78246\O,0,1.890722,2.147768,1.159944\O,0,3.038791,0.210968,1.172216\C,
 0,2.821748,1.395867,1.523514\H,0,3.545289,1.819699,2.240758\O,0,-2.147
 334,-0.106827,-1.496866\O,0,2.700282,0.475697,-1.566819\O,0,1.361445,2
 .282339,-1.619333\C,0,2.316544,1.573004,-2.021967\H,0,2.885238,1.96942
 7,-2.880717\O,0,-0.561258,-2.092988,1.707679\O,0,1.641641,-2.191137,1.
 219534\C,0,0.614516,-2.444745,1.906501\H,0,0.788877,-3.066072,2.801842
 \Fe,0,-1.413309,-1.139251,0.109271\O,0,-2.200113,0.271216,1.46108\Fe,0
 ,0.12895,1.914114,0.013878\O,0,-0.904099,2.104849,1.697957\O,0,-1.4639
 91,2.017276,-1.149819\Fe,0,1.890613,-0.775712,-0.159116\O,0,0.227856,0
 .017067,-0.01878\C,0,-1.839186,1.314437,2.023374\H,0,-2.401164,1.61298
 4,2.925989\C,0,-2.107622,1.108608,-1.747308\H,0,-2.717752,1.449683,-2.
 600897\N,0,-5.545114,-0.10034,0.508588\N,0,-4.982586,0.627297,-0.08580
 7\O,0,-2.746357,-2.050465,0.200371\O,0,0.260095,4.095051,0.066221\H,0,
 0.863019,4.302013,-0.66014\H,0,0.748892,4.292809,0.875454\\Version=ES6
 4L-G16RevC.02\HF=-5263.2981292\S2=10.890275\S2-1=0.\S2A=20.522169\RMSD
 =3.805e-09\Dipole=1.770944,2.1487446,-0.0431528\Quadrupole=-9.7920967,
 5.8031295,3.9889672,0.9800771,1.842421,0.6572319\PG=C01 [X(C6H8Fe3N2O1
 5)]\\@
 The archive entry for this job was punched.


 SIC AS THE CAWSE OF EWERY THING IS, SIC WILBE THE EFFECT.
 -- PROVERBS AND REASONS OF THE YEAR 1585
           AS REPRINTED IN PAISLEY MAGAZINE 1828.
 Job cpu time:       0 days  2 hours 17 minutes 18.1 seconds.
 Elapsed time:       0 days  1 hours 11 minutes 24.0 seconds.
 File lengths (MBytes):  RWF=    749 Int=      0 D2E=      0 Chk=    250 Scr=      1
 Normal termination of Gaussian 16 at Mon Apr  3 10:23:24 2023.
