 Entering Gaussian System, Link 0=g16
 Input=FeFeFe-AO-0xH2O-counterpoise-opt.gjf
 Output=FeFeFe-AO-0xH2O-counterpoise-opt.log
 AtFile(1): /zfs/curium/svicchi/00-MOF/01-Gaussian/zw-basis-set/def2-TZVP/H.gbs
            !----------------------------------------------------------------------
            ! Basis Set Exchange
            ! Version v0.9
            ! https://www.basissetexchange.org
            !----------------------------------------------------------------------
            !   Basis set: def2-TZVP
            ! Description: def2-TZVP
            !        Role: orbital
            !     Version: 1  (Data from Turbomole 7.3)
            !----------------------------------------------------------------------
            H     0
            S    3   1.00
                 34.0613410              0.60251978D-02
                  5.1235746              0.45021094D-01
                  1.1646626              0.20189726
            S    1   1.00
                  0.32723041             1.0000000
            S    1   1.00
                  0.10307241             1.0000000
            P    1   1.00
                  0.8000000              1.0000000
 AtFile(1): /zfs/curium/svicchi/00-MOF/01-Gaussian/zw-basis-set/def2-TZVP/O.gbs
            !----------------------------------------------------------------------
            ! Basis Set Exchange
            ! Version v0.9
            ! https://www.basissetexchange.org
            !----------------------------------------------------------------------
            !   Basis set: def2-TZVP
            ! Description: def2-TZVP
            !        Role: orbital
            !     Version: 1  (Data from Turbomole 7.3)
            !----------------------------------------------------------------------
            O     0
            S    6   1.00
              27032.3826310              0.21726302465D-03
               4052.3871392              0.16838662199D-02
                922.32722710             0.87395616265D-02
                261.24070989             0.35239968808D-01
                 85.354641351            0.11153519115
                 31.035035245            0.25588953961
            S    2   1.00
                 12.260860728            0.39768730901
                  4.9987076005           0.24627849430
            S    1   1.00
                  1.1703108158           1.0000000
            S    1   1.00
                  0.46474740994          1.0000000
            S    1   1.00
                  0.18504536357          1.0000000
            P    4   1.00
                 63.274954801            0.60685103418D-02
                 14.627049379            0.41912575824D-01
                  4.4501223456           0.16153841088
                  1.5275799647           0.35706951311
            P    1   1.00
                  0.52935117943           .44794207502
            P    1   1.00
                  0.17478421270           .24446069663
            D    1   1.00
                  2.31400000             1.0000000
            D    1   1.00
                  0.64500000             1.0000000
            F    1   1.00
                  1.42800000             1.0000000
 AtFile(1): /zfs/curium/svicchi/00-MOF/01-Gaussian/zw-basis-set/def2-TZVP/C.gbs
            !----------------------------------------------------------------------
            ! Basis Set Exchange
            ! Version v0.9
            ! https://www.basissetexchange.org
            !----------------------------------------------------------------------
            !   Basis set: def2-TZVP
            ! Description: def2-TZVP
            !        Role: orbital
            !     Version: 1  (Data from Turbomole 7.3)
            !----------------------------------------------------------------------
            C     0
            S    6   1.00
              13575.3496820              0.22245814352D-03
               2035.2333680              0.17232738252D-02
                463.22562359             0.89255715314D-02
                131.20019598             0.35727984502D-01
                 42.853015891            0.11076259931
                 15.584185766            0.24295627626
            S    2   1.00
                  6.2067138508           0.41440263448
                  2.5764896527           0.23744968655
            S    1   1.00
                  0.57696339419          1.0000000
            S    1   1.00
                  0.22972831358          1.0000000
            S    1   1.00
                  0.95164440028D-01      1.0000000
            P    4   1.00
                 34.697232244            0.53333657805D-02
                  7.9582622826           0.35864109092D-01
                  2.3780826883           0.14215873329
                  0.81433208183          0.34270471845
            P    1   1.00
                  0.28887547253           .46445822433
            P    1   1.00
                  0.10056823671           .24955789874
            D    1   1.00
                  1.09700000             1.0000000
            D    1   1.00
                  0.31800000             1.0000000
            F    1   1.00
                  0.76100000             1.0000000
 AtFile(1): /zfs/curium/svicchi/00-MOF/01-Gaussian/zw-basis-set/def2-TZVP/Fe.gbs
            !----------------------------------------------------------------------
            ! Basis Set Exchange
            ! Version v0.9
            ! https://www.basissetexchange.org
            !----------------------------------------------------------------------
            !   Basis set: def2-TZVP
            ! Description: def2-TZVP
            !        Role: orbital
            !     Version: 1  (Data from Turbomole 7.3)
            !----------------------------------------------------------------------
            Fe     0
            S    8   1.00
             300784.8463700              0.22806273096D-03
              45088.9705570              0.17681788761D-02
              10262.5163170              0.91927083490D-02
               2905.2897293              0.37355495807D-01
                946.11487137             0.12151108426
                339.87832894             0.28818881468
                131.94425588             0.41126612677
                 52.111494077            0.21518583573
            S    4   1.00
                329.48839267            -0.24745216477D-01
                101.92332739            -0.11683089050
                 16.240462745            0.55293621136
                  6.8840675801           0.53601640182
            S    2   1.00
                 10.470693782           -0.22912708577
                  1.7360039648           0.71159319984
            S    1   1.00
                  0.72577288979          1.0000000
            S    1   1.00
                  0.11595528203          1.0000000
            S    1   1.00
                  0.41968227746D-01      1.0000000
            P    6   1.00
               1585.3959970              0.23793960179D-02
                375.38006499             0.19253154755D-01
                120.31816501             0.90021836536D-01
                 44.788749031            0.25798172356
                 17.829278584            0.41492649744
                  7.2247153786           0.24207474784
            P    3   1.00
                 28.143219756           -0.29041755152D-01
                  3.8743241412           0.55312260343
                  1.5410752281           0.96771136842
            P    1   1.00
                  0.58285615250          1.0000000
            P    1   1.00
                  0.1349150              1.0000000
            D    4   1.00
                 61.996675034            0.11971972255D-01
                 17.873732552            0.73210135410D-01
                  6.2744782934           0.23103094314
                  2.3552337175           0.39910706494
            D    1   1.00
                  0.85432239901           .41391589765
            D    1   1.00
                  0.27869254413           .21909269782
            D    1   1.00
                  0.0910000              1.0000000
            F    1   1.00
                  1.5980000              1.0000000
 AtFile(1): /zfs/curium/svicchi/00-MOF/01-Gaussian/zw-basis-set/def2-TZVP/N.gbs
            !----------------------------------------------------------------------
            ! Basis Set Exchange
            ! Version v0.9
            ! https://www.basissetexchange.org
            !----------------------------------------------------------------------
            !   Basis set: def2-TZVP
            ! Description: def2-TZVP
            !        Role: orbital
            !     Version: 1  (Data from Turbomole 7.3)
            !----------------------------------------------------------------------
            N     0
            S    6   1.00
              19730.8006470              0.21887984991D-03
               2957.8958745              0.16960708803D-02
                673.22133595             0.87954603538D-02
                190.68249494             0.35359382605D-01
                 62.295441898            0.11095789217
                 22.654161182            0.24982972552
            S    2   1.00
                  8.9791477428           0.40623896148
                  3.6863002370           0.24338217176
            S    1   1.00
                  0.84660076805          1.0000000
            S    1   1.00
                  0.33647133771          1.0000000
            S    1   1.00
                  0.13647653675          1.0000000
            P    4   1.00
                 49.200380510            0.55552416751D-02
                 11.346790537            0.38052379723D-01
                  3.4273972411           0.14953671029
                  1.1785525134           0.34949305230
            P    1   1.00
                  0.41642204972           .45843153697
            P    1   1.00
                  0.14260826011           .24428771672
            D    1   1.00
                  1.65400000             1.0000000
            D    1   1.00
                  0.46900000             1.0000000
            F    1   1.00
                  1.09300000             1.0000000
 Initial command:
 /software/commercial/gaussian/g16/AVX2/g16/l1.exe "/scratch1/svicchi/G09-594231.pbs02/Gau-347025.inp" -scrdir="/scratch1/svicchi/G09-594231.pbs02/"
 Entering Link 1 = /software/commercial/gaussian/g16/AVX2/g16/l1.exe PID=    347027.
  
 Copyright (c) 1988-2021, Gaussian, Inc.  All Rights Reserved.
  
 This is part of the Gaussian(R) 16 program.  It is based on
 the Gaussian(R) 09 system (copyright 2009, Gaussian, Inc.),
 the Gaussian(R) 03 system (copyright 2003, Gaussian, Inc.),
 the Gaussian(R) 98 system (copyright 1998, Gaussian, Inc.),
 the Gaussian(R) 94 system (copyright 1995, Gaussian, Inc.),
 the Gaussian 92(TM) system (copyright 1992, Gaussian, Inc.),
 the Gaussian 90(TM) system (copyright 1990, Gaussian, Inc.),
 the Gaussian 88(TM) system (copyright 1988, Gaussian, Inc.),
 the Gaussian 86(TM) system (copyright 1986, Carnegie Mellon
 University), and the Gaussian 82(TM) system (copyright 1983,
 Carnegie Mellon University). Gaussian is a federally registered
 trademark of Gaussian, Inc.
  
 This software contains proprietary and confidential information,
 including trade secrets, belonging to Gaussian, Inc.
  
 This software is provided under written license and may be
 used, copied, transmitted, or stored only in accord with that
 written license.
  
 The following legend is applicable only to US Government
 contracts under FAR:
  
                    RESTRICTED RIGHTS LEGEND
  
 Use, reproduction and disclosure by the US Government is
 subject to restrictions as set forth in subparagraphs (a)
 and (c) of the Commercial Computer Software - Restricted
 Rights clause in FAR 52.227-19.
  
 Gaussian, Inc.
 340 Quinnipiac St., Bldg. 40, Wallingford CT 06492
  
  
 ---------------------------------------------------------------
 Warning -- This program may not be used in any manner that
 competes with the business of Gaussian, Inc. or will provide
 assistance to any competitor of Gaussian, Inc.  The licensee
 of this program is prohibited from giving any competitor of
 Gaussian, Inc. access to this program.  By using this program,
 the user acknowledges that Gaussian, Inc. is engaged in the
 business of creating and licensing software in the field of
 computational chemistry and represents and warrants to the
 licensee that it is not a competitor of Gaussian, Inc. and that
 it will not use this program in any manner prohibited above.
 ---------------------------------------------------------------
  

 Cite this work as:
 Gaussian 16, Revision C.02,
 M. J. Frisch, G. W. Trucks, H. B. Schlegel, G. E. Scuseria, 
 M. A. Robb, J. R. Cheeseman, G. Scalmani, V. Barone, 
 G. A. Petersson, H. Nakatsuji, X. Li, M. Caricato, A. V. Marenich, 
 J. Bloino, B. G. Janesko, R. Gomperts, B. Mennucci, H. P. Hratchian, 
 J. V. Ortiz, A. F. Izmaylov, J. L. Sonnenberg, D. Williams-Young, 
 F. Ding, F. Lipparini, F. Egidi, J. Goings, B. Peng, A. Petrone, 
 T. Henderson, D. Ranasinghe, V. G. Zakrzewski, J. Gao, N. Rega, 
 G. Zheng, W. Liang, M. Hada, M. Ehara, K. Toyota, R. Fukuda, 
 J. Hasegawa, M. Ishida, T. Nakajima, Y. Honda, O. Kitao, H. Nakai, 
 T. Vreven, K. Throssell, J. A. Montgomery, Jr., J. E. Peralta, 
 F. Ogliaro, M. J. Bearpark, J. J. Heyd, E. N. Brothers, K. N. Kudin, 
 V. N. Staroverov, T. A. Keith, R. Kobayashi, J. Normand, 
 K. Raghavachari, A. P. Rendell, J. C. Burant, S. S. Iyengar, 
 J. Tomasi, M. Cossi, J. M. Millam, M. Klene, C. Adamo, R. Cammi, 
 J. W. Ochterski, R. L. Martin, K. Morokuma, O. Farkas, 
 J. B. Foresman, and D. J. Fox, Gaussian, Inc., Wallingford CT, 2019.
 
 ******************************************
 Gaussian 16:  ES64L-G16RevC.02  7-Dec-2021
                10-May-2023 
 ******************************************
 %NProcShared=2
 Will use up to    2 processors via shared memory.
 %mem=110gb
 %chk=/scratch1/svicchi/G09-594231.pbs02/00-opt/FeFeFe-AO-0xH2O-counterpoise-opt.
 chk
 ----------------------------------------------------------------------
 #p gen um06l int=grid=ultrafine scf=(xqc,intrep,maxconventionalcycle=1
 50) pop=(hirshfeld) nosymm counterpoise=2
 ----------------------------------------------------------------------
 1/38=1,62=2,172=1/1;
 2/12=2,15=1,17=6,18=5,40=1/2;
 1/38=1,53=2,62=2,63=1/22;
 3/5=7,11=2,25=1,30=1,74=-53,75=-5,116=2/1,2,3;
 4//1;
 5/5=2,8=3,13=1,17=20,38=5,85=150/2,8;
 6/7=2,8=2,9=2,10=2,28=1,79=1/1;
 1/53=2,62=2,63=1/22;
 3/5=7,6=11,11=2,25=1,30=1,74=-53,75=-5,82=7,116=2/1,2,3;
 4//1;
 5/5=2,8=3,13=1,17=20,38=5,85=150/2,8;
 6/7=2,8=2,9=2,10=2,28=1,79=1/1;
 1/53=2,62=2,63=1/22(-4);
 99/5=1,9=1/99;
 Leave Link    1 at Wed May 10 09:25:26 2023, MaxMem= 14763950080 cpu:               0.0 elap:               1.4
 (Enter /software/commercial/gaussian/g16/AVX2/g16/l101.exe)
 ----------------------------
 FeFeFe-AO-0xH2O-counterpoise
 ----------------------------
 Symbolic Z-matrix:
 Charge =  0 Multiplicity =15 in supermolecule
 Charge =  0 Multiplicity =15 in fragment      1.
 Charge =  0 Multiplicity = 1 in fragment      2.
 O(fragment=1)         0.98968   2.54032   1.35843 
 O(fragment=1)        -1.18744   1.95869   1.46055 
 C(fragment=1)        -0.18002   2.62118   1.80232 
 H(fragment=1)        -0.34184   3.36875   2.59748 
 O(fragment=1)         2.32317  -1.75126  -1.44071 
 O(fragment=1)         2.89634   0.42883  -1.48226 
 C(fragment=1)         2.96833  -0.76229  -1.86467 
 H(fragment=1)         3.68404  -0.9671   -2.67848 
 O(fragment=1)        -1.9438   -0.83959   1.47315 
 O(fragment=1)         2.95711   0.47058   1.34382 
 O(fragment=1)         2.38873  -1.71117   1.36585 
 C(fragment=1)         3.04776  -0.71333   1.74483 
 H(fragment=1)         3.7967   -0.90134   2.5324 
 O(fragment=1)        -1.24887   1.94795  -1.41761 
 O(fragment=1)         0.93649   2.50524  -1.46753 
 C(fragment=1)        -0.25889   2.59118  -1.83691 
 H(fragment=1)        -0.46309   3.32457  -2.63553 
 Fe(fragment=1)       -1.38247   0.52574   0.03191 
 O(fragment=1)        -2.01125  -0.84894  -1.3702 
 Fe(fragment=1)        0.90802  -1.85818  -0.00279 
 O(fragment=1)        -0.45396  -2.48235  -1.36692 
 O(fragment=1)        -0.38226  -2.46842   1.43205 
 Fe(fragment=1)        1.74896   1.3006   -0.05602 
 O(fragment=1)         0.41777  -0.04115  -0.00807 
 C(fragment=1)        -1.51255  -1.93279  -1.75377 
 H(fragment=1)        -2.07484  -2.47404  -2.53427 
 C(fragment=1)        -1.42579  -1.91494   1.85387 
 H(fragment=1)        -1.95231  -2.44453   2.66665 
 N(fragment=2)        -4.4181    0.05052   0.09384 
 N(fragment=2)        -5.11508  -0.8283    0.10644 
 O(fragment=2)        -3.69674   0.99022   0.08128 
 
 ITRead=  0  0  0  0  0  0  0  0  0  0  0  0  0  0  0  0  0  0  0  0
 ITRead=  0  0  0  0  0  0  0  0  0  0  0
 MicOpt= -1 -1 -1 -1 -1 -1 -1 -1 -1 -1 -1 -1 -1 -1 -1 -1 -1 -1 -1 -1
 MicOpt= -1 -1 -1 -1 -1 -1 -1 -1 -1 -1 -1
 NAtoms=     31 NQM=       31 NQMF=       0 NMMI=      0 NMMIF=      0
                NMic=       0 NMicF=      0.
                    Isotopes and Nuclear Properties:
 (Nuclear quadrupole moments (NQMom) in fm**2, nuclear magnetic moments (NMagM)
  in nuclear magnetons)

  Atom         1           2           3           4           5           6           7           8           9          10
 IAtWgt=          16          16          12           1          16          16          12           1          16          16
 AtmWgt=  15.9949146  15.9949146  12.0000000   1.0078250  15.9949146  15.9949146  12.0000000   1.0078250  15.9949146  15.9949146
 NucSpn=           0           0           0           1           0           0           0           1           0           0
 AtZEff=  -0.0000000  -0.0000000  -0.0000000  -0.0000000  -0.0000000  -0.0000000  -0.0000000  -0.0000000  -0.0000000  -0.0000000
 NQMom=    0.0000000   0.0000000   0.0000000   0.0000000   0.0000000   0.0000000   0.0000000   0.0000000   0.0000000   0.0000000
 NMagM=    0.0000000   0.0000000   0.0000000   2.7928460   0.0000000   0.0000000   0.0000000   2.7928460   0.0000000   0.0000000
 AtZNuc=   8.0000000   8.0000000   6.0000000   1.0000000   8.0000000   8.0000000   6.0000000   1.0000000   8.0000000   8.0000000

  Atom        11          12          13          14          15          16          17          18          19          20
 IAtWgt=          16          12           1          16          16          12           1          56          16          56
 AtmWgt=  15.9949146  12.0000000   1.0078250  15.9949146  15.9949146  12.0000000   1.0078250  55.9349393  15.9949146  55.9349393
 NucSpn=           0           0           1           0           0           0           1           0           0           0
 AtZEff=  -0.0000000  -0.0000000  -0.0000000  -0.0000000  -0.0000000  -0.0000000  -0.0000000  -0.0000000  -0.0000000  -0.0000000
 NQMom=    0.0000000   0.0000000   0.0000000   0.0000000   0.0000000   0.0000000   0.0000000   0.0000000   0.0000000   0.0000000
 NMagM=    0.0000000   0.0000000   2.7928460   0.0000000   0.0000000   0.0000000   2.7928460   0.0000000   0.0000000   0.0000000
 AtZNuc=   8.0000000   6.0000000   1.0000000   8.0000000   8.0000000   6.0000000   1.0000000  26.0000000   8.0000000  26.0000000

  Atom        21          22          23          24          25          26          27          28          29          30
 IAtWgt=          16          16          56          16          12           1          12           1          14          14
 AtmWgt=  15.9949146  15.9949146  55.9349393  15.9949146  12.0000000   1.0078250  12.0000000   1.0078250  14.0030740  14.0030740
 NucSpn=           0           0           0           0           0           1           0           1           2           2
 AtZEff=  -0.0000000  -0.0000000  -0.0000000  -0.0000000  -0.0000000  -0.0000000  -0.0000000  -0.0000000  -0.0000000  -0.0000000
 NQMom=    0.0000000   0.0000000   0.0000000   0.0000000   0.0000000   0.0000000   0.0000000   0.0000000   2.0440000   2.0440000
 NMagM=    0.0000000   0.0000000   0.0000000   0.0000000   0.0000000   2.7928460   0.0000000   2.7928460   0.4037610   0.4037610
 AtZNuc=   8.0000000   8.0000000  26.0000000   8.0000000   6.0000000   1.0000000   6.0000000   1.0000000   7.0000000   7.0000000

  Atom        31
 IAtWgt=          16
 AtmWgt=  15.9949146
 NucSpn=           0
 AtZEff=  -0.0000000
 NQMom=    0.0000000
 NMagM=    0.0000000
 AtZNuc=   8.0000000
 Leave Link  101 at Wed May 10 09:25:28 2023, MaxMem= 14763950080 cpu:               0.1 elap:               1.8
 (Enter /software/commercial/gaussian/g16/AVX2/g16/l202.exe)
                          Input orientation:                          
 ---------------------------------------------------------------------
 Center     Atomic      Atomic             Coordinates (Angstroms)
 Number     Number       Type             X           Y           Z
 ---------------------------------------------------------------------
      1          8           0        0.989679    2.540321    1.358430
      2          8           0       -1.187444    1.958685    1.460547
      3          6           0       -0.180015    2.621179    1.802317
      4          1           0       -0.341842    3.368752    2.597484
      5          8           0        2.323172   -1.751258   -1.440705
      6          8           0        2.896338    0.428830   -1.482264
      7          6           0        2.968333   -0.762291   -1.864669
      8          1           0        3.684037   -0.967100   -2.678484
      9          8           0       -1.943795   -0.839586    1.473150
     10          8           0        2.957111    0.470581    1.343816
     11          8           0        2.388727   -1.711165    1.365850
     12          6           0        3.047758   -0.713331    1.744828
     13          1           0        3.796695   -0.901335    2.532397
     14          8           0       -1.248871    1.947948   -1.417608
     15          8           0        0.936488    2.505240   -1.467525
     16          6           0       -0.258886    2.591179   -1.836906
     17          1           0       -0.463094    3.324565   -2.635527
     18         26           0       -1.382471    0.525741    0.031911
     19          8           0       -2.011247   -0.848941   -1.370197
     20         26           0        0.908015   -1.858177   -0.002790
     21          8           0       -0.453959   -2.482350   -1.366919
     22          8           0       -0.382260   -2.468416    1.432047
     23         26           0        1.748955    1.300598   -0.056020
     24          8           0        0.417765   -0.041146   -0.008069
     25          6           0       -1.512554   -1.932790   -1.753770
     26          1           0       -2.074845   -2.474040   -2.534271
     27          6           0       -1.425787   -1.914938    1.853872
     28          1           0       -1.952313   -2.444526    2.666654
     29          7           0       -4.418096    0.050515    0.093843
     30          7           0       -5.115075   -0.828302    0.106438
     31          8           0       -3.696744    0.990223    0.081283
 ---------------------------------------------------------------------
                    Distance matrix (angstroms):
                    1          2          3          4          5
     1  O    0.000000
     2  O    2.255791   0.000000
     3  C    1.253698   1.253243   0.000000
     4  H    1.998625   1.998989   1.103333   0.000000
     5  O    5.294432   5.874127   5.991773   7.044414   0.000000
     6  O    4.020359   5.260976   5.005878   5.981078   2.254558
     7  C    5.021024   5.977563   5.899725   6.923408   1.254605
     8  H    5.988175   7.030158   6.919843   7.927367   1.999739
     9  O    4.476852   2.898715   3.898226   4.641173   5.246780
    10  O    2.855666   4.405158   3.831038   4.566637   3.618287
    11  O    4.475771   5.125014   5.055506   5.897329   2.807607
    12  C    3.869269   5.015717   4.641205   5.373994   3.427818
    13  H    4.593749   5.845530   5.362401   5.946879   4.321942
    14  O    3.615024   2.878830   3.458845   4.354578   5.142388
    15  O    2.826673   3.658335   3.457150   4.347882   4.476761
    16  C    3.430987   3.483599   3.640201   4.502812   5.067619
    17  H    4.321722   4.378143   4.502149   5.234602   5.912263
    18  Fe   3.383087   2.032822   2.995179   3.968348   4.591853
    19  O    5.285647   4.071182   5.045789   6.026470   4.427904
    20  Fe   4.605038   4.593554   4.950439   5.970289   2.020322
    21  O    5.893967   5.315577   6.013743   7.068554   2.872698
    22  O    5.193754   4.499817   5.107052   5.952513   4.010783
    23  Fe   2.028320   3.369791   2.986348   3.961032   3.400133
    24  O    2.976303   2.955140   3.274571   4.358132   2.933855
    25  C    5.996306   5.057777   5.929591   6.957753   3.852760
    26  H    7.048989   6.032835   6.953965   7.967209   4.589211
    27  C    5.092079   3.900829   4.704356   5.444748   4.993568
    28  H    5.934262   4.629037   5.435944   6.032628   5.969153
    29  N    6.086242   3.993257   5.242950   5.821921   7.144643
    30  N    7.084005   5.002719   6.255377   6.826736   7.653301
    31  O    5.098673   3.022726   4.241386   4.821207   6.787603
                    6          7          8          9         10
     6  O    0.000000
     7  C    1.253071   0.000000
     8  H    2.000008   1.102939   0.000000
     9  O    5.811217   5.939361   6.994628   0.000000
    10  O    2.827042   3.437219   4.332926   5.074657   0.000000
    11  O    3.598472   3.416513   4.311392   4.420623   2.254675
    12  C    3.426599   3.610703   4.476041   5.000535   1.253266
    13  H    4.324059   4.476573   5.212514   5.837726   1.999945
    14  O    4.415275   5.032899   5.866932   4.075506   5.243888
    15  O    2.855295   3.868188   4.590489   5.303910   4.015768
    16  C    3.841479   4.654189   5.377383   5.056237   4.995655
    17  H    4.582694   5.391781   5.968160   6.034389   5.973123
    18  Fe   4.539859   4.917879   5.936693   2.063098   4.533885
    19  O    5.072440   5.004820   5.844813   2.844162   5.813053
    20  Fe   3.372339   2.985376   3.957228   3.368790   3.381606
    21  O    4.439906   3.862440   4.597738   3.603370   5.263391
    22  O    5.257038   5.000567   5.973708   2.256805   4.449369
    23  Fe   2.027471   3.002267   3.970430   4.533779   2.026847
    24  O    2.921892   3.236110   4.319380   2.899738   2.921940
    25  C    5.008921   4.632571   5.365837   3.434250   5.945514
    26  H    5.852011   5.367690   5.954527   4.329900   7.002209
    27  C    5.941701   5.870642   6.895720   1.252862   5.016040
    28  H    6.998508   6.897504   7.907068   2.000089   5.860904
    29  N    7.491874   7.684774   8.623566   2.969332   7.492167
    30  N    8.263600   8.320523   9.230354   3.453266   8.269123
    31  O    6.799160   7.161095   8.119320   2.891077   6.792481
                   11         12         13         14         15
    11  O    0.000000
    12  C    1.254440   0.000000
    13  H    1.999758   1.102958   0.000000
    14  O    5.862497   5.961915   7.012752   0.000000
    15  O    5.283473   5.013569   5.982049   2.255850   0.000000
    16  C    5.981443   5.889185   6.909139   1.252848   1.254092
    17  H    7.035800   6.915070   7.919057   1.998961   1.998587
    18  Fe   4.583130   4.908800   5.925600   2.035099   3.397690
    19  O    5.252538   5.942668   6.997512   2.899319   4.466447
    20  Fe   2.021706   2.990542   3.960706   4.597875   4.602789
    21  O    4.017912   5.007436   5.980998   4.501333   5.178756
    22  O    2.873357   3.865641   4.596757   5.326896   5.906257
    23  Fe   3.391421   2.997641   3.967575   3.355584   2.025737
    24  O    2.925971   3.231307   4.314054   2.953129   2.980464
    25  C    5.000114   5.875688   6.900960   3.904185   5.076993
    26  H    5.976320   6.903032   7.913249   4.634992   5.916021
    27  C    3.851001   4.633396   5.363031   5.065152   6.012487
    28  H    4.590701   5.370988   5.954037   6.039028   7.066597
    29  N    7.145233   7.684282   8.621795   3.991080   6.093859
    30  N    7.659805   8.326427   9.236355   4.997781   7.085992
    31  O    6.780897   7.152467   8.107871   3.025887   5.114775
                   16         17         18         19         20
    16  C    0.000000
    17  H    1.103337   0.000000
    18  Fe   3.003490   3.974153   0.000000
    19  O    3.888832   4.627741   2.061799   0.000000
    20  Fe   4.952011   5.972609   3.306145   3.377936   0.000000
    21  O    5.098984   5.943880   3.444920   2.256808   2.026182
    22  O    6.025013   7.078864   3.453372   3.623378   2.023847
    23  Fe   2.978016   3.955181   3.227067   4.526223   3.269231
    24  O    3.275918   4.359754   1.887805   2.899659   1.882013
    25  C    4.695199   5.433106   3.041374   1.253217   2.988420
    26  H    5.425907   6.019287   4.007912   2.000015   3.960447
    27  C    5.940420   6.966626   3.046035   3.445828   2.982792
    28  H    6.964774   7.975795   4.011119   4.341144   3.956161
    29  N    5.242308   5.814715   3.073222   2.957255   5.658613
    30  N    6.249161   6.812166   3.971312   3.437241   6.111480
    31  O    4.249868   4.825630   2.360941   2.886212   5.415188
                   21         22         23         24         25
    21  O    0.000000
    22  O    2.799919   0.000000
    23  Fe   4.569681   4.578415   0.000000
    24  O    2.926748   2.933533   1.890673   0.000000
    25  C    1.253911   3.422556   4.896386   3.217440   0.000000
    26  H    1.997511   4.312372   5.917015   4.302764   1.103768
    27  C    3.411730   1.254282   4.905746   3.221274   3.608729
    28  H    4.303046   1.997471   5.927756   4.306698   4.471623
    29  N    4.925811   4.942042   6.294258   4.837803   3.973581
    30  N    5.160684   5.181385   7.188429   5.589727   4.202193
    31  O    4.967062   4.977203   5.456265   4.242746   4.084374
                   26         27         28         29         30
    26  H    0.000000
    27  C    4.470981   0.000000
    28  H    5.202452   1.103770   0.000000
    29  N    4.332573   3.989313   4.350250   0.000000
    30  N    4.350264   4.224352   4.378350   1.121721   0.000000
    31  O    4.633875   4.091366   4.639470   1.184718   2.306367
                   31
    31  O    0.000000
 Symmetry turned off by external request.
 Stoichiometry    C6H6Fe3N2O14(15)
 Framework group  C1[X(C6H6Fe3N2O14)]
 Deg. of freedom    87
 Full point group                 C1      NOp   1
 Rotational constants (GHZ):           0.2607263           0.1795857           0.1473657
 Leave Link  202 at Wed May 10 09:25:30 2023, MaxMem= 14763950080 cpu:               0.0 elap:               0.5
 (Enter /software/commercial/gaussian/g16/AVX2/g16/l122.exe)
 Counterpoise: doing full-system calculation.
 Leave Link  122 at Wed May 10 09:25:32 2023, MaxMem= 14763950080 cpu:               0.0 elap:               0.6
 (Enter /software/commercial/gaussian/g16/AVX2/g16/l301.exe)
 General basis read from cards:  (5D, 7F)
 Centers:       4      8     13     17     26     28
 S 3 1.00
     Exponent=  3.4061341000D+01 Coefficients=  6.0251978000D-03
     Exponent=  5.1235746000D+00 Coefficients=  4.5021094000D-02
     Exponent=  1.1646626000D+00 Coefficients=  2.0189726000D-01
 S 1 1.00
     Exponent=  3.2723041000D-01 Coefficients=  1.0000000000D+00
 S 1 1.00
     Exponent=  1.0307241000D-01 Coefficients=  1.0000000000D+00
 P 1 1.00
     Exponent=  8.0000000000D-01 Coefficients=  1.0000000000D+00
 ****
 Centers:       1      2      5      6      9     10     11     14     15     19
 Centers:      21     22     24     31
 S 6 1.00
     Exponent=  2.7032382631D+04 Coefficients=  2.1726302465D-04
     Exponent=  4.0523871392D+03 Coefficients=  1.6838662199D-03
     Exponent=  9.2232722710D+02 Coefficients=  8.7395616265D-03
     Exponent=  2.6124070989D+02 Coefficients=  3.5239968808D-02
     Exponent=  8.5354641351D+01 Coefficients=  1.1153519115D-01
     Exponent=  3.1035035245D+01 Coefficients=  2.5588953961D-01
 S 2 1.00
     Exponent=  1.2260860728D+01 Coefficients=  3.9768730901D-01
     Exponent=  4.9987076005D+00 Coefficients=  2.4627849430D-01
 S 1 1.00
     Exponent=  1.1703108158D+00 Coefficients=  1.0000000000D+00
 S 1 1.00
     Exponent=  4.6474740994D-01 Coefficients=  1.0000000000D+00
 S 1 1.00
     Exponent=  1.8504536357D-01 Coefficients=  1.0000000000D+00
 P 4 1.00
     Exponent=  6.3274954801D+01 Coefficients=  6.0685103418D-03
     Exponent=  1.4627049379D+01 Coefficients=  4.1912575824D-02
     Exponent=  4.4501223456D+00 Coefficients=  1.6153841088D-01
     Exponent=  1.5275799647D+00 Coefficients=  3.5706951311D-01
 P 1 1.00
     Exponent=  5.2935117943D-01 Coefficients=  4.4794207502D-01
 P 1 1.00
     Exponent=  1.7478421270D-01 Coefficients=  2.4446069663D-01
 D 1 1.00
     Exponent=  2.3140000000D+00 Coefficients=  1.0000000000D+00
 D 1 1.00
     Exponent=  6.4500000000D-01 Coefficients=  1.0000000000D+00
 F 1 1.00
     Exponent=  1.4280000000D+00 Coefficients=  1.0000000000D+00
 ****
 Centers:       3      7     12     16     25     27
 S 6 1.00
     Exponent=  1.3575349682D+04 Coefficients=  2.2245814352D-04
     Exponent=  2.0352333680D+03 Coefficients=  1.7232738252D-03
     Exponent=  4.6322562359D+02 Coefficients=  8.9255715314D-03
     Exponent=  1.3120019598D+02 Coefficients=  3.5727984502D-02
     Exponent=  4.2853015891D+01 Coefficients=  1.1076259931D-01
     Exponent=  1.5584185766D+01 Coefficients=  2.4295627626D-01
 S 2 1.00
     Exponent=  6.2067138508D+00 Coefficients=  4.1440263448D-01
     Exponent=  2.5764896527D+00 Coefficients=  2.3744968655D-01
 S 1 1.00
     Exponent=  5.7696339419D-01 Coefficients=  1.0000000000D+00
 S 1 1.00
     Exponent=  2.2972831358D-01 Coefficients=  1.0000000000D+00
 S 1 1.00
     Exponent=  9.5164440028D-02 Coefficients=  1.0000000000D+00
 P 4 1.00
     Exponent=  3.4697232244D+01 Coefficients=  5.3333657805D-03
     Exponent=  7.9582622826D+00 Coefficients=  3.5864109092D-02
     Exponent=  2.3780826883D+00 Coefficients=  1.4215873329D-01
     Exponent=  8.1433208183D-01 Coefficients=  3.4270471845D-01
 P 1 1.00
     Exponent=  2.8887547253D-01 Coefficients=  4.6445822433D-01
 P 1 1.00
     Exponent=  1.0056823671D-01 Coefficients=  2.4955789874D-01
 D 1 1.00
     Exponent=  1.0970000000D+00 Coefficients=  1.0000000000D+00
 D 1 1.00
     Exponent=  3.1800000000D-01 Coefficients=  1.0000000000D+00
 F 1 1.00
     Exponent=  7.6100000000D-01 Coefficients=  1.0000000000D+00
 ****
 Centers:      18     20     23
 S 8 1.00
     Exponent=  3.0078484637D+05 Coefficients=  2.2806273096D-04
     Exponent=  4.5088970557D+04 Coefficients=  1.7681788761D-03
     Exponent=  1.0262516317D+04 Coefficients=  9.1927083490D-03
     Exponent=  2.9052897293D+03 Coefficients=  3.7355495807D-02
     Exponent=  9.4611487137D+02 Coefficients=  1.2151108426D-01
     Exponent=  3.3987832894D+02 Coefficients=  2.8818881468D-01
     Exponent=  1.3194425588D+02 Coefficients=  4.1126612677D-01
     Exponent=  5.2111494077D+01 Coefficients=  2.1518583573D-01
 S 4 1.00
     Exponent=  3.2948839267D+02 Coefficients= -2.4745216477D-02
     Exponent=  1.0192332739D+02 Coefficients= -1.1683089050D-01
     Exponent=  1.6240462745D+01 Coefficients=  5.5293621136D-01
     Exponent=  6.8840675801D+00 Coefficients=  5.3601640182D-01
 S 2 1.00
     Exponent=  1.0470693782D+01 Coefficients= -2.2912708577D-01
     Exponent=  1.7360039648D+00 Coefficients=  7.1159319984D-01
 S 1 1.00
     Exponent=  7.2577288979D-01 Coefficients=  1.0000000000D+00
 S 1 1.00
     Exponent=  1.1595528203D-01 Coefficients=  1.0000000000D+00
 S 1 1.00
     Exponent=  4.1968227746D-02 Coefficients=  1.0000000000D+00
 P 6 1.00
     Exponent=  1.5853959970D+03 Coefficients=  2.3793960179D-03
     Exponent=  3.7538006499D+02 Coefficients=  1.9253154755D-02
     Exponent=  1.2031816501D+02 Coefficients=  9.0021836536D-02
     Exponent=  4.4788749031D+01 Coefficients=  2.5798172356D-01
     Exponent=  1.7829278584D+01 Coefficients=  4.1492649744D-01
     Exponent=  7.2247153786D+00 Coefficients=  2.4207474784D-01
 P 3 1.00
     Exponent=  2.8143219756D+01 Coefficients= -2.9041755152D-02
     Exponent=  3.8743241412D+00 Coefficients=  5.5312260343D-01
     Exponent=  1.5410752281D+00 Coefficients=  9.6771136842D-01
 P 1 1.00
     Exponent=  5.8285615250D-01 Coefficients=  1.0000000000D+00
 P 1 1.00
     Exponent=  1.3491500000D-01 Coefficients=  1.0000000000D+00
 D 4 1.00
     Exponent=  6.1996675034D+01 Coefficients=  1.1971972255D-02
     Exponent=  1.7873732552D+01 Coefficients=  7.3210135410D-02
     Exponent=  6.2744782934D+00 Coefficients=  2.3103094314D-01
     Exponent=  2.3552337175D+00 Coefficients=  3.9910706494D-01
 D 1 1.00
     Exponent=  8.5432239901D-01 Coefficients=  4.1391589765D-01
 D 1 1.00
     Exponent=  2.7869254413D-01 Coefficients=  2.1909269782D-01
 D 1 1.00
     Exponent=  9.1000000000D-02 Coefficients=  1.0000000000D+00
 F 1 1.00
     Exponent=  1.5980000000D+00 Coefficients=  1.0000000000D+00
 ****
 Centers:      29     30
 S 6 1.00
     Exponent=  1.9730800647D+04 Coefficients=  2.1887984991D-04
     Exponent=  2.9578958745D+03 Coefficients=  1.6960708803D-03
     Exponent=  6.7322133595D+02 Coefficients=  8.7954603538D-03
     Exponent=  1.9068249494D+02 Coefficients=  3.5359382605D-02
     Exponent=  6.2295441898D+01 Coefficients=  1.1095789217D-01
     Exponent=  2.2654161182D+01 Coefficients=  2.4982972552D-01
 S 2 1.00
     Exponent=  8.9791477428D+00 Coefficients=  4.0623896148D-01
     Exponent=  3.6863002370D+00 Coefficients=  2.4338217176D-01
 S 1 1.00
     Exponent=  8.4660076805D-01 Coefficients=  1.0000000000D+00
 S 1 1.00
     Exponent=  3.3647133771D-01 Coefficients=  1.0000000000D+00
 S 1 1.00
     Exponent=  1.3647653675D-01 Coefficients=  1.0000000000D+00
 P 4 1.00
     Exponent=  4.9200380510D+01 Coefficients=  5.5552416751D-03
     Exponent=  1.1346790537D+01 Coefficients=  3.8052379723D-02
     Exponent=  3.4273972411D+00 Coefficients=  1.4953671029D-01
     Exponent=  1.1785525134D+00 Coefficients=  3.4949305230D-01
 P 1 1.00
     Exponent=  4.1642204972D-01 Coefficients=  4.5843153697D-01
 P 1 1.00
     Exponent=  1.4260826011D-01 Coefficients=  2.4428771672D-01
 D 1 1.00
     Exponent=  1.6540000000D+00 Coefficients=  1.0000000000D+00
 D 1 1.00
     Exponent=  4.6900000000D-01 Coefficients=  1.0000000000D+00
 F 1 1.00
     Exponent=  1.0930000000D+00 Coefficients=  1.0000000000D+00
 ****
 Ernie: Thresh=  0.10000D-02 Tol=  0.10000D-05 Strict=F.
   853 basis functions,  1476 primitive gaussians,   984 cartesian basis functions
   130 alpha electrons      116 beta electrons
       nuclear repulsion energy      4446.9292269789 Hartrees.
 IExCor= 4134 DFT=T Ex+Corr=M06L ExCW=0 ScaHFX=  0.000000
 ScaDFX=  1.000000  1.000000  1.000000  1.000000 ScalE2=  1.000000  1.000000
 IRadAn=      5 IRanWt=     -1 IRanGd=            0 ICorTp=0 IEmpDi=  4
 NAtoms=   31 NActive=   31 NUniq=   31 SFac= 1.00D+00 NAtFMM=   60 NAOKFM=F Big=F
 Integral buffers will be    131072 words long.
 Raffenetti 2 integral format.
 Two-electron integral symmetry is turned off.
 Leave Link  301 at Wed May 10 09:25:34 2023, MaxMem= 14763950080 cpu:               0.1 elap:               1.5
 (Enter /software/commercial/gaussian/g16/AVX2/g16/l302.exe)
 NPDir=0 NMtPBC=     1 NCelOv=     1 NCel=       1 NClECP=     1 NCelD=      1
         NCelK=      1 NCelE2=     1 NClLst=     1 CellRange=     0.0.
 One-electron integrals computed using PRISM.
 NBasis=   853 RedAO= T EigKep=  1.11D-04  NBF=   853
 NBsUse=   853 1.00D-06 EigRej= -1.00D+00 NBFU=   853
 Precomputing XC quadrature grid using
 IXCGrd= 4 IRadAn=           5 IRanWt=          -1 IRanGd=           0 AccXCQ= 0.00D+00.
 Generated NRdTot=       0 NPtTot=           0 NUsed=           0 NTot=          32
 NSgBfM=   968   967   967   968   968 MxSgAt=    31 MxSgA2=    31.
 Leave Link  302 at Wed May 10 09:25:40 2023, MaxMem= 14763950080 cpu:               1.8 elap:               4.3
 (Enter /software/commercial/gaussian/g16/AVX2/g16/l303.exe)
 DipDrv:  MaxL=1.
 Leave Link  303 at Wed May 10 09:25:42 2023, MaxMem= 14763950080 cpu:               0.1 elap:               1.3
 (Enter /software/commercial/gaussian/g16/AVX2/g16/l401.exe)
 ExpMin= 4.20D-02 ExpMax= 3.01D+05 ExpMxC= 2.91D+03 IAcc=3 IRadAn=         5 AccDes= 0.00D+00
 Harris functional with IExCor= 1009 and IRadAn=       5 diagonalized for initial guess.
 HarFok:  IExCor= 1009 AccDes= 0.00D+00 IRadAn=         5 IDoV= 1 UseB2=F ITyADJ=14
 ICtDFT=  3500011 ScaDFX=  1.000000  1.000000  1.000000  1.000000
 FoFCou: FMM=F IPFlag=           0 FMFlag=      100000 FMFlg1=           0
         NFxFlg=           0 DoJE=T BraDBF=F KetDBF=T FulRan=T
         wScrn=  0.000000 ICntrl=       500 IOpCl=  0 I1Cent=   200000004 NGrid=           0
         NMat0=    1 NMatS0=      1 NMatT0=    0 NMatD0=    1 NMtDS0=    0 NMtDT0=    0
 Symmetry not used in FoFCou.
 Harris En= -5184.52232950700    
 JPrj=0 DoOrth=F DoCkMO=F.
 Initial guess <Sx>= 0.0000 <Sy>= 0.0000 <Sz>= 7.0000 <S**2>=56.0000 S= 7.0000
 Leave Link  401 at Wed May 10 09:25:56 2023, MaxMem= 14763950080 cpu:              20.7 elap:              12.7
 (Enter /software/commercial/gaussian/g16/AVX2/g16/l502.exe)
 Two-electron integral symmetry not used.
 UHF open shell SCF:
 Using DIIS extrapolation, IDIIS=  1040.
 NGot= 14763950080 LenX= 14762000842 LenY= 14761031602
 Requested convergence on RMS density matrix=1.00D-08 within 150 cycles.
 Requested convergence on MAX density matrix=1.00D-06.
 Requested convergence on             energy=1.00D-06.
 No special actions if energy rises.
 Fock matrices will be formed incrementally for  20 cycles.

 Cycle   1  Pass 1  IDiag  1:
 FoFJK:  IHMeth= 1 ICntrl=     500 DoSepK=F KAlg= 0 I1Cent=           0 FoldK=F
 IRaf= 780000000 NMat=       1 IRICut=       1 DoRegI=T DoRafI=F ISym2E= 0 IDoP0=0 IntGTp=1.
 FoFCou: FMM=F IPFlag=           0 FMFlag=      100000 FMFlg1=           0
         NFxFlg=           0 DoJE=T BraDBF=F KetDBF=F FulRan=T
         wScrn=  0.000000 ICntrl=       500 IOpCl=  0 I1Cent=           0 NGrid=           0
         NMat0=    1 NMatS0=      1 NMatT0=    0 NMatD0=    1 NMtDS0=    0 NMtDT0=    0
 Symmetry not used in FoFCou.
 E= -5185.76117425707    
 DIIS: error= 5.38D-02 at cycle   1 NSaved=   1.
 NSaved= 1 IEnMin= 1 EnMin= -5185.76117425707     IErMin= 1 ErrMin= 5.38D-02
 ErrMax= 5.38D-02  0.00D+00 EMaxC= 1.00D-01 BMatC= 8.62D+00 BMatP= 8.62D+00
 IDIUse=3 WtCom= 4.62D-01 WtEn= 5.38D-01
 Coeff-Com:  0.100D+01
 Coeff-En:   0.100D+01
 Coeff:      0.100D+01
 Gap=     0.480 Goal=   None    Shift=    0.000
 Gap=     0.000 Goal=   None    Shift=    0.000
 GapD=    0.000 DampG=0.250 DampE=0.250 DampFc=0.1250 IDamp=-1.
 Damping current iteration by 1.25D-01
 RMSDP=3.32D-03 MaxDP=4.87D-01              OVMax= 8.96D-01

 Cycle   2  Pass 1  IDiag  1:
 RMSU=  4.14D-04    CP:  9.98D-01
 E= -5186.00396636628     Delta-E=       -0.242792109209 Rises=F Damp=T
 DIIS: error= 2.19D-02 at cycle   2 NSaved=   2.
 NSaved= 2 IEnMin= 2 EnMin= -5186.00396636628     IErMin= 2 ErrMin= 2.19D-02
 ErrMax= 2.19D-02  0.00D+00 EMaxC= 1.00D-01 BMatC= 2.20D+00 BMatP= 8.62D+00
 IDIUse=3 WtCom= 7.81D-01 WtEn= 2.19D-01
 Coeff-Com: -0.374D+00 0.137D+01
 Coeff-En:   0.250D+00 0.750D+00
 Coeff:     -0.237D+00 0.124D+01
 Gap=     0.064 Goal=   None    Shift=    0.000
 Gap=     0.022 Goal=   None    Shift=    0.000
 RMSDP=2.15D-03 MaxDP=1.80D-01 DE=-2.43D-01 OVMax= 9.83D-01

 Cycle   3  Pass 1  IDiag  1:
 RMSU=  2.15D-03    CP:  9.87D-01  1.32D+00
 E= -5182.34306611918     Delta-E=        3.660900247100 Rises=F Damp=F
 DIIS: error= 9.63D-02 at cycle   3 NSaved=   3.
 NSaved= 3 IEnMin= 2 EnMin= -5186.00396636628     IErMin= 2 ErrMin= 2.19D-02
 ErrMax= 9.63D-02  0.00D+00 EMaxC= 1.00D-01 BMatC= 1.63D+01 BMatP= 2.20D+00
 IDIUse=2 WtCom= 0.00D+00 WtEn= 1.00D+00
 EnCoef did     5 forward-backward iterations
 Coeff-En:   0.149D+00 0.771D+00 0.804D-01
 Coeff:      0.149D+00 0.771D+00 0.804D-01
 Gap=    -0.224 Goal=   None    Shift=    0.000
 Gap=     0.010 Goal=   None    Shift=    0.000
 RMSDP=2.19D-03 MaxDP=1.93D-01 DE= 3.66D+00 OVMax= 9.79D-01

 Cycle   4  Pass 1  IDiag  1:
 RMSU=  1.13D-03    CP:  1.00D+00  2.91D+00  1.85D-01
 E= -5184.84592923701     Delta-E=       -2.502863117828 Rises=F Damp=F
 DIIS: error= 1.23D-01 at cycle   4 NSaved=   4.
 NSaved= 4 IEnMin= 2 EnMin= -5186.00396636628     IErMin= 2 ErrMin= 2.19D-02
 ErrMax= 1.23D-01  0.00D+00 EMaxC= 1.00D-01 BMatC= 1.38D+01 BMatP= 2.20D+00
 IDIUse=2 WtCom= 0.00D+00 WtEn= 1.00D+00
 EnCoef did   100 forward-backward iterations
 Coeff-En:   0.580D+00 0.147D-01 0.238D-01 0.382D+00
 Coeff:      0.580D+00 0.147D-01 0.238D-01 0.382D+00
 Gap=     0.209 Goal=   None    Shift=    0.000
 Gap=     0.156 Goal=   None    Shift=    0.000
 RMSDP=1.22D-03 MaxDP=1.94D-01 DE=-2.50D+00 OVMax= 9.02D-01

 Cycle   5  Pass 1  IDiag  1:
 RMSU=  9.08D-04    CP:  1.00D+00  1.68D+00  2.28D-01  4.40D-01
 E= -5185.92186012319     Delta-E=       -1.075930886176 Rises=F Damp=F
 DIIS: error= 5.81D-02 at cycle   5 NSaved=   5.
 NSaved= 5 IEnMin= 2 EnMin= -5186.00396636628     IErMin= 2 ErrMin= 2.19D-02
 ErrMax= 5.81D-02  0.00D+00 EMaxC= 1.00D-01 BMatC= 5.21D+00 BMatP= 2.20D+00
 IDIUse=2 WtCom= 0.00D+00 WtEn= 1.00D+00
 EnCoef did   100 forward-backward iterations
 Coeff-En:   0.423D+00 0.320D-02 0.505D-02 0.291D+00 0.278D+00
 Coeff:      0.423D+00 0.320D-02 0.505D-02 0.291D+00 0.278D+00
 Gap=     0.206 Goal=   None    Shift=    0.000
 Gap=     0.015 Goal=   None    Shift=    0.000
 RMSDP=1.19D-03 MaxDP=2.71D-01 DE=-1.08D+00 OVMax= 9.87D-01

 Cycle   6  Pass 1  IDiag  1:
 RMSU=  8.02D-04    CP:  1.00D+00  1.52D+00  2.44D-01  5.61D-01  4.24D-02
 E= -5186.06386347065     Delta-E=       -0.142003347462 Rises=F Damp=F
 DIIS: error= 4.20D-02 at cycle   6 NSaved=   6.
 NSaved= 6 IEnMin= 6 EnMin= -5186.06386347065     IErMin= 2 ErrMin= 2.19D-02
 ErrMax= 4.20D-02  0.00D+00 EMaxC= 1.00D-01 BMatC= 4.34D+00 BMatP= 2.20D+00
 IDIUse=2 WtCom= 0.00D+00 WtEn= 1.00D+00
 Coeff-En:   0.000D+00 0.000D+00 0.000D+00 0.000D+00 0.475D+00 0.525D+00
 Coeff:      0.000D+00 0.000D+00 0.000D+00 0.000D+00 0.475D+00 0.525D+00
 Gap=     0.278 Goal=   None    Shift=    0.000
 Gap=     0.011 Goal=   None    Shift=    0.000
 RMSDP=8.16D-04 MaxDP=1.20D-01 DE=-1.42D-01 OVMax= 4.13D-01

 Cycle   7  Pass 1  IDiag  1:
 RMSU=  5.78D-04    CP:  1.00D+00  1.63D+00  1.44D-01  6.40D-01  2.88D-01
                    CP:  4.09D-01
 E= -5186.62347547560     Delta-E=       -0.559612004952 Rises=F Damp=F
 DIIS: error= 2.23D-02 at cycle   7 NSaved=   7.
 NSaved= 7 IEnMin= 7 EnMin= -5186.62347547560     IErMin= 2 ErrMin= 2.19D-02
 ErrMax= 2.23D-02  0.00D+00 EMaxC= 1.00D-01 BMatC= 9.37D-01 BMatP= 2.20D+00
 IDIUse=3 WtCom= 7.77D-01 WtEn= 2.23D-01
 EnCoef did     4 forward-backward iterations
 Coeff-Com: -0.702D-01 0.145D+00 0.331D-01-0.333D-01 0.284D+00 0.252D+00
 Coeff-Com:  0.389D+00
 Coeff-En:   0.000D+00 0.000D+00 0.000D+00 0.000D+00 0.324D+00 0.274D+00
 Coeff-En:   0.402D+00
 Coeff:     -0.545D-01 0.112D+00 0.257D-01-0.259D-01 0.293D+00 0.257D+00
 Coeff:      0.392D+00
 Gap=     0.177 Goal=   None    Shift=    0.000
 Gap=     0.011 Goal=   None    Shift=    0.000
 RMSDP=7.48D-04 MaxDP=1.44D-01 DE=-5.60D-01 OVMax= 8.16D-01

 Cycle   8  Pass 1  IDiag  1:
 RMSU=  5.73D-04    CP:  1.00D+00  1.54D+00  1.94D-01  5.15D-01  3.95D-01
                    CP:  4.44D-01  2.49D-01
 E= -5186.41337875944     Delta-E=        0.210096716159 Rises=F Damp=F
 DIIS: error= 3.10D-02 at cycle   8 NSaved=   8.
 NSaved= 8 IEnMin= 7 EnMin= -5186.62347547560     IErMin= 2 ErrMin= 2.19D-02
 ErrMax= 3.10D-02  0.00D+00 EMaxC= 1.00D-01 BMatC= 2.11D+00 BMatP= 9.37D-01
 IDIUse=2 WtCom= 0.00D+00 WtEn= 1.00D+00
 EnCoef did    11 forward-backward iterations
 Coeff-En:   0.000D+00 0.000D+00 0.000D+00 0.000D+00 0.203D+00 0.600D-01
 Coeff-En:   0.493D+00 0.244D+00
 Coeff:      0.000D+00 0.000D+00 0.000D+00 0.000D+00 0.203D+00 0.600D-01
 Coeff:      0.493D+00 0.244D+00
 Gap=     0.188 Goal=   None    Shift=    0.000
 Gap=     0.013 Goal=   None    Shift=    0.000
 RMSDP=8.19D-04 MaxDP=2.13D-01 DE= 2.10D-01 OVMax= 9.68D-01

 Cycle   9  Pass 1  IDiag  1:
 RMSU=  5.44D-04    CP:  1.00D+00  1.49D+00  2.24D-01  5.03D-01  3.66D-01
                    CP:  5.04D-01  3.54D-01 -5.35D-02
 E= -5186.31491131223     Delta-E=        0.098467447215 Rises=F Damp=F
 DIIS: error= 3.23D-02 at cycle   9 NSaved=   9.
 NSaved= 9 IEnMin= 7 EnMin= -5186.62347547560     IErMin= 2 ErrMin= 2.19D-02
 ErrMax= 3.23D-02  0.00D+00 EMaxC= 1.00D-01 BMatC= 2.71D+00 BMatP= 9.37D-01
 IDIUse=2 WtCom= 0.00D+00 WtEn= 1.00D+00
 EnCoef did     4 forward-backward iterations
 Coeff-En:   0.000D+00 0.000D+00 0.000D+00 0.000D+00 0.167D+00 0.000D+00
 Coeff-En:   0.368D+00 0.281D+00 0.184D+00
 Coeff:      0.000D+00 0.000D+00 0.000D+00 0.000D+00 0.167D+00 0.000D+00
 Coeff:      0.368D+00 0.281D+00 0.184D+00
 Gap=     0.139 Goal=   None    Shift=    0.000
 Gap=     0.011 Goal=   None    Shift=    0.000
 RMSDP=7.10D-04 MaxDP=1.63D-01 DE= 9.85D-02 OVMax= 8.70D-01

 Cycle  10  Pass 1  IDiag  1:
 RMSU=  3.14D-04    CP:  1.00D+00  1.53D+00  1.91D-01  4.93D-01  6.56D-01
                    CP:  2.12D-01  3.88D-01  1.57D-02  3.78D-02
 E= -5186.67784746668     Delta-E=       -0.362936154454 Rises=F Damp=F
 DIIS: error= 2.14D-02 at cycle  10 NSaved=  10.
 NSaved=10 IEnMin=10 EnMin= -5186.67784746668     IErMin=10 ErrMin= 2.14D-02
 ErrMax= 2.14D-02  0.00D+00 EMaxC= 1.00D-01 BMatC= 6.90D-01 BMatP= 9.37D-01
 IDIUse=3 WtCom= 7.86D-01 WtEn= 2.14D-01
 EnCoef did     3 forward-backward iterations
 Coeff-Com: -0.547D-01 0.580D-01 0.385D-02-0.110D-01-0.266D-01-0.270D-02
 Coeff-Com:  0.225D+00 0.242D+00 0.141D+00 0.425D+00
 Coeff-En:   0.000D+00 0.000D+00 0.000D+00 0.000D+00 0.000D+00 0.000D+00
 Coeff-En:   0.204D+00 0.241D+00 0.129D+00 0.426D+00
 Coeff:     -0.430D-01 0.456D-01 0.303D-02-0.861D-02-0.209D-01-0.212D-02
 Coeff:      0.221D+00 0.242D+00 0.138D+00 0.425D+00
 Gap=     0.158 Goal=   None    Shift=    0.000
 Gap=     0.013 Goal=   None    Shift=    0.000
 RMSDP=4.93D-04 MaxDP=1.37D-01 DE=-3.63D-01 OVMax= 6.61D-01

 Cycle  11  Pass 1  IDiag  1:
 RMSU=  1.83D-04    CP:  1.00D+00  1.54D+00  1.76D-01  5.84D-01  3.39D-01
                    CP:  4.36D-01  5.59D-01  1.58D-01  2.27D-01  2.54D-01
 E= -5186.78496373424     Delta-E=       -0.107116267563 Rises=F Damp=F
 DIIS: error= 8.88D-03 at cycle  11 NSaved=  11.
 NSaved=11 IEnMin=11 EnMin= -5186.78496373424     IErMin=11 ErrMin= 8.88D-03
 ErrMax= 8.88D-03  0.00D+00 EMaxC= 1.00D-01 BMatC= 1.56D-01 BMatP= 6.90D-01
 IDIUse=3 WtCom= 9.11D-01 WtEn= 8.88D-02
 EnCoef did     4 forward-backward iterations
 Coeff-Com: -0.934D-03 0.749D-02-0.280D-02 0.317D-02-0.287D-01-0.236D-01
 Coeff-Com:  0.142D-01 0.793D-01-0.417D-01 0.329D+00 0.665D+00
 Coeff-En:   0.000D+00 0.000D+00 0.000D+00 0.000D+00 0.000D+00 0.000D+00
 Coeff-En:   0.000D+00 0.610D-01 0.000D+00 0.293D+00 0.646D+00
 Coeff:     -0.851D-03 0.682D-02-0.255D-02 0.289D-02-0.261D-01-0.215D-01
 Coeff:      0.130D-01 0.777D-01-0.380D-01 0.325D+00 0.663D+00
 Gap=     0.159 Goal=   None    Shift=    0.000
 Gap=     0.014 Goal=   None    Shift=    0.000
 RMSDP=2.05D-04 MaxDP=4.20D-02 DE=-1.07D-01 OVMax= 2.74D-01

 Cycle  12  Pass 1  IDiag  1:
 RMSU=  8.94D-05    CP:  1.00D+00  1.51D+00  1.70D-01  5.59D-01  4.00D-01
                    CP:  3.54D-01  5.06D-01  2.82D-01  5.99D-02  5.81D-01
                    CP:  8.84D-01
 E= -5186.80812503621     Delta-E=       -0.023161301962 Rises=F Damp=F
 DIIS: error= 3.92D-03 at cycle  12 NSaved=  12.
 NSaved=12 IEnMin=12 EnMin= -5186.80812503621     IErMin=12 ErrMin= 3.92D-03
 ErrMax= 3.92D-03  0.00D+00 EMaxC= 1.00D-01 BMatC= 3.20D-02 BMatP= 1.56D-01
 IDIUse=3 WtCom= 9.61D-01 WtEn= 3.92D-02
 EnCoef did     5 forward-backward iterations
 Coeff-Com:  0.838D-02-0.747D-02-0.327D-02 0.284D-02-0.111D-01-0.127D-01
 Coeff-Com: -0.168D-01-0.124D-01-0.374D-01 0.172D+00 0.482D+00 0.436D+00
 Coeff-En:   0.000D+00 0.000D+00 0.000D+00 0.000D+00 0.000D+00 0.000D+00
 Coeff-En:   0.000D+00 0.000D+00 0.000D+00 0.123D+00 0.304D+00 0.573D+00
 Coeff:      0.806D-02-0.718D-02-0.314D-02 0.273D-02-0.107D-01-0.122D-01
 Coeff:     -0.162D-01-0.119D-01-0.360D-01 0.170D+00 0.475D+00 0.441D+00
 Gap=     0.156 Goal=   None    Shift=    0.000
 Gap=     0.013 Goal=   None    Shift=    0.000
 RMSDP=7.73D-05 MaxDP=1.80D-02 DE=-2.32D-02 OVMax= 8.48D-02

 Cycle  13  Pass 1  IDiag  1:
 RMSU=  3.77D-05    CP:  1.00D+00  1.51D+00  1.70D-01  5.60D-01  4.15D-01
                    CP:  3.41D-01  5.38D-01  1.99D-01  9.16D-02  5.92D-01
                    CP:  8.96D-01  5.87D-01
 E= -5186.81361905531     Delta-E=       -0.005494019104 Rises=F Damp=F
 DIIS: error= 1.02D-03 at cycle  13 NSaved=  13.
 NSaved=13 IEnMin=13 EnMin= -5186.81361905531     IErMin=13 ErrMin= 1.02D-03
 ErrMax= 1.02D-03  0.00D+00 EMaxC= 1.00D-01 BMatC= 2.14D-03 BMatP= 3.20D-02
 IDIUse=3 WtCom= 9.90D-01 WtEn= 1.02D-02
 EnCoef did     2 forward-backward iterations
 Coeff-Com:  0.523D-02-0.714D-02-0.638D-03 0.220D-02-0.406D-02-0.348D-02
 Coeff-Com: -0.496D-03-0.180D-01-0.350D-02 0.494D-01 0.148D+00 0.296D+00
 Coeff-Com:  0.536D+00
 Coeff-En:   0.000D+00 0.000D+00 0.000D+00 0.000D+00 0.000D+00 0.000D+00
 Coeff-En:   0.000D+00 0.000D+00 0.000D+00 0.000D+00 0.290D-01 0.505D-01
 Coeff-En:   0.920D+00
 Coeff:      0.518D-02-0.707D-02-0.632D-03 0.218D-02-0.402D-02-0.344D-02
 Coeff:     -0.491D-03-0.178D-01-0.347D-02 0.489D-01 0.147D+00 0.294D+00
 Coeff:      0.540D+00
 Gap=     0.159 Goal=   None    Shift=    0.000
 Gap=     0.013 Goal=   None    Shift=    0.000
 RMSDP=3.61D-05 MaxDP=6.46D-03 DE=-5.49D-03 OVMax= 4.27D-02

 Cycle  14  Pass 1  IDiag  1:
 RMSU=  1.73D-05    CP:  1.00D+00  1.52D+00  1.71D-01  5.65D-01  3.99D-01
                    CP:  3.54D-01  5.50D-01  1.87D-01  1.15D-01  5.49D-01
                    CP:  9.08D-01  5.77D-01  6.47D-01
 E= -5186.81372129272     Delta-E=       -0.000102237409 Rises=F Damp=F
 DIIS: error= 7.68D-04 at cycle  14 NSaved=  14.
 NSaved=14 IEnMin=14 EnMin= -5186.81372129272     IErMin=14 ErrMin= 7.68D-04
 ErrMax= 7.68D-04  0.00D+00 EMaxC= 1.00D-01 BMatC= 1.74D-03 BMatP= 2.14D-03
 IDIUse=3 WtCom= 9.92D-01 WtEn= 7.68D-03
 EnCoef did     1 forward-backward iterations
 Coeff-Com:  0.106D-02-0.104D-02-0.144D-03 0.752D-04-0.669D-03-0.653D-03
 Coeff-Com: -0.268D-02-0.490D-02 0.111D-03 0.154D-01 0.629D-02 0.108D+00
 Coeff-Com:  0.351D+00 0.529D+00
 Coeff-En:   0.000D+00 0.000D+00 0.000D+00 0.000D+00 0.000D+00 0.000D+00
 Coeff-En:   0.000D+00 0.000D+00 0.000D+00 0.000D+00 0.000D+00 0.403D-02
 Coeff-En:   0.453D+00 0.543D+00
 Coeff:      0.106D-02-0.103D-02-0.143D-03 0.746D-04-0.664D-03-0.648D-03
 Coeff:     -0.266D-02-0.487D-02 0.110D-03 0.152D-01 0.624D-02 0.107D+00
 Coeff:      0.351D+00 0.529D+00
 Gap=     0.158 Goal=   None    Shift=    0.000
 Gap=     0.013 Goal=   None    Shift=    0.000
 RMSDP=1.88D-05 MaxDP=3.92D-03 DE=-1.02D-04 OVMax= 2.44D-02

 Cycle  15  Pass 1  IDiag  1:
 RMSU=  6.90D-06    CP:  1.00D+00  1.52D+00  1.71D-01  5.62D-01  4.07D-01
                    CP:  3.48D-01  5.43D-01  1.97D-01  1.02D-01  5.73D-01
                    CP:  9.03D-01  6.28D-01  7.50D-01  8.00D-01
 E= -5186.81405672233     Delta-E=       -0.000335429606 Rises=F Damp=F
 DIIS: error= 1.56D-04 at cycle  15 NSaved=  15.
 NSaved=15 IEnMin=15 EnMin= -5186.81405672233     IErMin=15 ErrMin= 1.56D-04
 ErrMax= 1.56D-04  0.00D+00 EMaxC= 1.00D-01 BMatC= 9.64D-05 BMatP= 1.74D-03
 IDIUse=3 WtCom= 9.98D-01 WtEn= 1.56D-03
 Coeff-Com:  0.459D-03-0.342D-03-0.212D-03-0.303D-03-0.275D-03 0.595D-03
 Coeff-Com: -0.285D-02-0.872D-03-0.157D-03 0.714D-02-0.180D-01 0.225D-01
 Coeff-Com:  0.166D+00 0.392D+00 0.434D+00
 Coeff-En:   0.000D+00 0.000D+00 0.000D+00 0.000D+00 0.000D+00 0.000D+00
 Coeff-En:   0.000D+00 0.000D+00 0.000D+00 0.000D+00 0.000D+00 0.000D+00
 Coeff-En:   0.000D+00 0.000D+00 0.100D+01
 Coeff:      0.459D-03-0.341D-03-0.212D-03-0.303D-03-0.274D-03 0.594D-03
 Coeff:     -0.284D-02-0.871D-03-0.157D-03 0.713D-02-0.180D-01 0.225D-01
 Coeff:      0.166D+00 0.391D+00 0.435D+00
 Gap=     0.157 Goal=   None    Shift=    0.000
 Gap=     0.013 Goal=   None    Shift=    0.000
 RMSDP=4.29D-06 MaxDP=5.06D-04 DE=-3.35D-04 OVMax= 3.59D-03

 Cycle  16  Pass 1  IDiag  1:
 RMSU=  3.64D-06    CP:  1.00D+00  1.52D+00  1.71D-01  5.62D-01  4.08D-01
                    CP:  3.48D-01  5.44D-01  1.97D-01  1.02D-01  5.72D-01
                    CP:  9.02D-01  6.28D-01  7.82D-01  8.85D-01  9.39D-01
 E= -5186.81407162058     Delta-E=       -0.000014898251 Rises=F Damp=F
 DIIS: error= 9.07D-05 at cycle  16 NSaved=  16.
 NSaved=16 IEnMin=16 EnMin= -5186.81407162058     IErMin=16 ErrMin= 9.07D-05
 ErrMax= 9.07D-05  0.00D+00 EMaxC= 1.00D-01 BMatC= 2.49D-05 BMatP= 9.64D-05
 IDIUse=1 WtCom= 1.00D+00 WtEn= 0.00D+00
 Coeff-Com:  0.119D-03-0.641D-04-0.894D-04-0.646D-05-0.201D-03 0.240D-03
 Coeff-Com: -0.858D-03 0.269D-03 0.408D-03 0.328D-02-0.136D-01-0.128D-01
 Coeff-Com:  0.251D-01 0.124D+00 0.250D+00 0.624D+00
 Coeff:      0.119D-03-0.641D-04-0.894D-04-0.646D-05-0.201D-03 0.240D-03
 Coeff:     -0.858D-03 0.269D-03 0.408D-03 0.328D-02-0.136D-01-0.128D-01
 Coeff:      0.251D-01 0.124D+00 0.250D+00 0.624D+00
 Gap=     0.157 Goal=   None    Shift=    0.000
 Gap=     0.013 Goal=   None    Shift=    0.000
 RMSDP=3.65D-06 MaxDP=5.79D-04 DE=-1.49D-05 OVMax= 4.66D-03

 Cycle  17  Pass 1  IDiag  1:
 RMSU=  1.75D-06    CP:  1.00D+00  1.52D+00  1.71D-01  5.62D-01  4.08D-01
                    CP:  3.48D-01  5.45D-01  1.95D-01  1.03D-01  5.72D-01
                    CP:  9.01D-01  6.23D-01  8.01D-01  9.80D-01  1.22D+00
                    CP:  1.22D+00
 E= -5186.81407628790     Delta-E=       -0.000004667321 Rises=F Damp=F
 DIIS: error= 4.82D-05 at cycle  17 NSaved=  17.
 NSaved=17 IEnMin=17 EnMin= -5186.81407628790     IErMin=17 ErrMin= 4.82D-05
 ErrMax= 4.82D-05  0.00D+00 EMaxC= 1.00D-01 BMatC= 6.12D-06 BMatP= 2.49D-05
 IDIUse=1 WtCom= 1.00D+00 WtEn= 0.00D+00
 Coeff-Com: -0.863D-04 0.131D-03-0.578D-04 0.745D-04-0.233D-04 0.242D-04
 Coeff-Com: -0.525D-04 0.319D-03 0.199D-03 0.116D-02-0.500D-02-0.169D-01
 Coeff-Com: -0.303D-01-0.222D-01 0.547D-01 0.461D+00 0.557D+00
 Coeff:     -0.863D-04 0.131D-03-0.578D-04 0.745D-04-0.233D-04 0.242D-04
 Coeff:     -0.525D-04 0.319D-03 0.199D-03 0.116D-02-0.500D-02-0.169D-01
 Coeff:     -0.303D-01-0.222D-01 0.547D-01 0.461D+00 0.557D+00
 Gap=     0.157 Goal=   None    Shift=    0.000
 Gap=     0.013 Goal=   None    Shift=    0.000
 RMSDP=3.17D-06 MaxDP=4.79D-04 DE=-4.67D-06 OVMax= 4.34D-03

 Cycle  18  Pass 1  IDiag  1:
 RMSU=  1.01D-06    CP:  1.00D+00  1.52D+00  1.71D-01  5.62D-01  4.08D-01
                    CP:  3.48D-01  5.47D-01  1.94D-01  1.03D-01  5.71D-01
                    CP:  9.01D-01  6.19D-01  8.19D-01  1.06D+00  1.44D+00
                    CP:  1.58D+00  1.39D+00
 E= -5186.81407735398     Delta-E=       -0.000001066081 Rises=F Damp=F
 DIIS: error= 4.08D-05 at cycle  18 NSaved=  18.
 NSaved=18 IEnMin=18 EnMin= -5186.81407735398     IErMin=18 ErrMin= 4.08D-05
 ErrMax= 4.08D-05  0.00D+00 EMaxC= 1.00D-01 BMatC= 4.54D-06 BMatP= 6.12D-06
 IDIUse=1 WtCom= 1.00D+00 WtEn= 0.00D+00
 Coeff-Com: -0.163D-03 0.219D-03-0.471D-04 0.455D-04 0.378D-04-0.232D-04
 Coeff-Com: -0.370D-04 0.738D-04-0.157D-03 0.158D-03 0.104D-02-0.234D-02
 Coeff-Com: -0.197D-01-0.632D-01-0.689D-01 0.527D-01 0.318D+00 0.783D+00
 Coeff:     -0.163D-03 0.219D-03-0.471D-04 0.455D-04 0.378D-04-0.232D-04
 Coeff:     -0.370D-04 0.738D-04-0.157D-03 0.158D-03 0.104D-02-0.234D-02
 Coeff:     -0.197D-01-0.632D-01-0.689D-01 0.527D-01 0.318D+00 0.783D+00
 Gap=     0.157 Goal=   None    Shift=    0.000
 Gap=     0.013 Goal=   None    Shift=    0.000
 RMSDP=3.18D-06 MaxDP=4.99D-04 DE=-1.07D-06 OVMax= 4.41D-03

 Cycle  19  Pass 1  IDiag  1:
 RMSU=  6.13D-07    CP:  1.00D+00  1.52D+00  1.71D-01  5.62D-01  4.09D-01
                    CP:  3.49D-01  5.48D-01  1.94D-01  1.03D-01  5.69D-01
                    CP:  9.02D-01  6.18D-01  8.36D-01  1.14D+00  1.69D+00
                    CP:  1.99D+00  2.00D+00  1.64D+00
 E= -5186.81407829711     Delta-E=       -0.000000943128 Rises=F Damp=F
 DIIS: error= 3.44D-05 at cycle  19 NSaved=  19.
 NSaved=19 IEnMin=19 EnMin= -5186.81407829711     IErMin=19 ErrMin= 3.44D-05
 ErrMax= 3.44D-05  0.00D+00 EMaxC= 1.00D-01 BMatC= 2.76D-06 BMatP= 4.54D-06
 IDIUse=1 WtCom= 1.00D+00 WtEn= 0.00D+00
 Coeff-Com: -0.176D-03 0.239D-03-0.914D-05 0.224D-04-0.137D-05-0.403D-04
 Coeff-Com: -0.783D-04-0.956D-04-0.195D-03-0.101D-03 0.279D-02 0.846D-02
 Coeff-Com:  0.957D-03-0.543D-01-0.101D+00-0.228D+00-0.496D-01 0.650D+00
 Coeff-Com:  0.771D+00
 Coeff:     -0.176D-03 0.239D-03-0.914D-05 0.224D-04-0.137D-05-0.403D-04
 Coeff:     -0.783D-04-0.956D-04-0.195D-03-0.101D-03 0.279D-02 0.846D-02
 Coeff:      0.957D-03-0.543D-01-0.101D+00-0.228D+00-0.496D-01 0.650D+00
 Coeff:      0.771D+00
 Gap=     0.157 Goal=   None    Shift=    0.000
 Gap=     0.013 Goal=   None    Shift=    0.000
 RMSDP=3.63D-06 MaxDP=6.59D-04 DE=-9.43D-07 OVMax= 5.05D-03

 Cycle  20  Pass 1  IDiag  1:
 RMSU=  4.59D-07    CP:  1.00D+00  1.52D+00  1.71D-01  5.62D-01  4.09D-01
                    CP:  3.49D-01  5.50D-01  1.94D-01  1.03D-01  5.69D-01
                    CP:  9.01D-01  6.16D-01  8.57D-01  1.22D+00  1.97D+00
                    CP:  2.43D+00  2.74D+00  2.54D+00  1.30D+00
 E= -5186.81407916508     Delta-E=       -0.000000867973 Rises=F Damp=F
 DIIS: error= 1.89D-05 at cycle  20 NSaved=  20.
 NSaved=20 IEnMin=20 EnMin= -5186.81407916508     IErMin=20 ErrMin= 1.89D-05
 ErrMax= 1.89D-05  0.00D+00 EMaxC= 1.00D-01 BMatC= 7.93D-07 BMatP= 2.76D-06
 IDIUse=1 WtCom= 1.00D+00 WtEn= 0.00D+00
 Coeff-Com: -0.485D-04 0.543D-04 0.237D-05 0.338D-04-0.722D-04 0.145D-04
 Coeff-Com: -0.133D-03-0.179D-03-0.173D-03 0.403D-04 0.223D-02 0.104D-01
 Coeff-Com:  0.137D-01-0.209D-01-0.592D-01-0.212D+00-0.171D+00 0.200D+00
 Coeff-Com:  0.645D+00 0.593D+00
 Coeff:     -0.485D-04 0.543D-04 0.237D-05 0.338D-04-0.722D-04 0.145D-04
 Coeff:     -0.133D-03-0.179D-03-0.173D-03 0.403D-04 0.223D-02 0.104D-01
 Coeff:      0.137D-01-0.209D-01-0.592D-01-0.212D+00-0.171D+00 0.200D+00
 Coeff:      0.645D+00 0.593D+00
 Gap=     0.157 Goal=   None    Shift=    0.000
 Gap=     0.013 Goal=   None    Shift=    0.000
 RMSDP=2.20D-06 MaxDP=3.58D-04 DE=-8.68D-07 OVMax= 3.08D-03

 Cycle  21  Pass 1  IDiag  1:
 Restarting incremental Fock formation.
 E= -5186.81407945354     Delta-E=       -0.000000288464 Rises=F Damp=F
 DIIS: error= 8.99D-06 at cycle  21 NSaved=  20.
 NSaved=20 IEnMin=20 EnMin= -5186.81407945354     IErMin=20 ErrMin= 8.99D-06
 ErrMax= 8.99D-06  0.00D+00 EMaxC= 1.00D-01 BMatC= 2.01D-07 BMatP= 7.93D-07
 IDIUse=1 WtCom= 1.00D+00 WtEn= 0.00D+00
 Coeff-Com:  0.311D-04-0.430D-04-0.159D-05-0.219D-04 0.197D-04-0.155D-03
 Coeff-Com: -0.477D-04-0.495D-04-0.658D-04 0.455D-03 0.344D-02 0.975D-02
 Coeff-Com:  0.159D-01 0.152D-01-0.164D-01-0.102D+00-0.298D+00-0.363D-02
 Coeff-Com:  0.444D+00 0.931D+00
 Coeff:      0.311D-04-0.430D-04-0.159D-05-0.219D-04 0.197D-04-0.155D-03
 Coeff:     -0.477D-04-0.495D-04-0.658D-04 0.455D-03 0.344D-02 0.975D-02
 Coeff:      0.159D-01 0.152D-01-0.164D-01-0.102D+00-0.298D+00-0.363D-02
 Coeff:      0.444D+00 0.931D+00
 Gap=     0.157 Goal=   None    Shift=    0.000
 Gap=     0.013 Goal=   None    Shift=    0.000
 RMSDP=2.37D-06 MaxDP=4.27D-04 DE=-2.88D-07 OVMax= 3.33D-03

 Cycle  22  Pass 1  IDiag  1:
 RMSU=  2.37D-06    CP:  1.00D+00
 E= -5186.81407950973     Delta-E=       -0.000000056190 Rises=F Damp=F
 DIIS: error= 1.36D-05 at cycle  22 NSaved=  20.
 NSaved=20 IEnMin=20 EnMin= -5186.81407950973     IErMin=19 ErrMin= 8.99D-06
 ErrMax= 1.36D-05  0.00D+00 EMaxC= 1.00D-01 BMatC= 3.19D-07 BMatP= 2.01D-07
 IDIUse=1 WtCom= 1.00D+00 WtEn= 0.00D+00
 Coeff-Com:  0.732D-04-0.924D-04-0.108D-04 0.724D-05-0.773D-04-0.209D-04
 Coeff-Com: -0.296D-04-0.874D-04 0.425D-03 0.758D-03 0.401D-02 0.148D-01
 Coeff-Com:  0.166D-01 0.264D-01-0.178D-01-0.179D+00-0.108D+00 0.890D-01
 Coeff-Com:  0.547D+00 0.606D+00
 Coeff:      0.732D-04-0.924D-04-0.108D-04 0.724D-05-0.773D-04-0.209D-04
 Coeff:     -0.296D-04-0.874D-04 0.425D-03 0.758D-03 0.401D-02 0.148D-01
 Coeff:      0.166D-01 0.264D-01-0.178D-01-0.179D+00-0.108D+00 0.890D-01
 Coeff:      0.547D+00 0.606D+00
 Gap=     0.157 Goal=   None    Shift=    0.000
 Gap=     0.013 Goal=   None    Shift=    0.000
 RMSDP=4.02D-07 MaxDP=9.66D-05 DE=-5.62D-08 OVMax= 5.58D-04

 Cycle  23  Pass 1  IDiag  1:
 RMSU=  3.08D-07    CP:  1.00D+00  1.11D+00
 E= -5186.81407956541     Delta-E=       -0.000000055679 Rises=F Damp=F
 DIIS: error= 5.29D-06 at cycle  23 NSaved=  20.
 NSaved=20 IEnMin=20 EnMin= -5186.81407956541     IErMin=20 ErrMin= 5.29D-06
 ErrMax= 5.29D-06  0.00D+00 EMaxC= 1.00D-01 BMatC= 5.56D-08 BMatP= 2.01D-07
 IDIUse=1 WtCom= 1.00D+00 WtEn= 0.00D+00
 Coeff-Com:  0.131D-04-0.485D-06-0.217D-04-0.657D-07 0.106D-04 0.303D-04
 Coeff-Com: -0.128D-03 0.579D-03-0.121D-03-0.253D-02-0.415D-02-0.781D-02
 Coeff-Com: -0.348D-02 0.535D-02-0.649D-02 0.144D-01-0.209D-01 0.147D+00
 Coeff-Com:  0.313D+00 0.565D+00
 Coeff:      0.131D-04-0.485D-06-0.217D-04-0.657D-07 0.106D-04 0.303D-04
 Coeff:     -0.128D-03 0.579D-03-0.121D-03-0.253D-02-0.415D-02-0.781D-02
 Coeff:     -0.348D-02 0.535D-02-0.649D-02 0.144D-01-0.209D-01 0.147D+00
 Coeff:      0.313D+00 0.565D+00
 Gap=     0.157 Goal=   None    Shift=    0.000
 Gap=     0.013 Goal=   None    Shift=    0.000
 RMSDP=1.60D-07 MaxDP=3.81D-05 DE=-5.57D-08 OVMax= 1.97D-04

 Cycle  24  Pass 1  IDiag  1:
 RMSU=  1.52D-07    CP:  1.00D+00  1.10D+00  8.45D-01
 E= -5186.81407957196     Delta-E=       -0.000000006548 Rises=F Damp=F
 DIIS: error= 2.84D-06 at cycle  24 NSaved=  20.
 NSaved=20 IEnMin=20 EnMin= -5186.81407957196     IErMin=20 ErrMin= 2.84D-06
 ErrMax= 2.84D-06  0.00D+00 EMaxC= 1.00D-01 BMatC= 2.22D-08 BMatP= 5.56D-08
 IDIUse=1 WtCom= 1.00D+00 WtEn= 0.00D+00
 Coeff-Com:  0.175D-05-0.701D-05-0.531D-05 0.826D-06 0.149D-04-0.196D-04
 Coeff-Com:  0.815D-04-0.256D-03-0.482D-03 0.162D-02 0.143D-02 0.694D-02
 Coeff-Com:  0.533D-02-0.181D-01-0.230D-01-0.437D-01 0.223D-01 0.964D-01
 Coeff-Com:  0.396D+00 0.556D+00
 Coeff:      0.175D-05-0.701D-05-0.531D-05 0.826D-06 0.149D-04-0.196D-04
 Coeff:      0.815D-04-0.256D-03-0.482D-03 0.162D-02 0.143D-02 0.694D-02
 Coeff:      0.533D-02-0.181D-01-0.230D-01-0.437D-01 0.223D-01 0.964D-01
 Coeff:      0.396D+00 0.556D+00
 Gap=     0.157 Goal=   None    Shift=    0.000
 Gap=     0.013 Goal=   None    Shift=    0.000
 RMSDP=3.08D-07 MaxDP=5.19D-05 DE=-6.55D-09 OVMax= 4.31D-04

 Cycle  25  Pass 1  IDiag  1:
 RMSU=  4.38D-08    CP:  1.00D+00  1.23D+00  9.53D-01  8.48D-01
 E= -5186.81407957658     Delta-E=       -0.000000004624 Rises=F Damp=F
 DIIS: error= 1.21D-06 at cycle  25 NSaved=  20.
 NSaved=20 IEnMin=20 EnMin= -5186.81407957658     IErMin=20 ErrMin= 1.21D-06
 ErrMax= 1.21D-06  0.00D+00 EMaxC= 1.00D-01 BMatC= 3.47D-09 BMatP= 2.22D-08
 IDIUse=1 WtCom= 1.00D+00 WtEn= 0.00D+00
 Coeff-Com: -0.321D-06-0.159D-05 0.706D-06 0.182D-05 0.585D-05-0.553D-05
 Coeff-Com: -0.235D-03-0.181D-03 0.153D-02 0.153D-02 0.526D-02 0.599D-02
 Coeff-Com: -0.177D-02-0.182D-01-0.410D-01-0.219D-01 0.240D-01 0.234D+00
 Coeff-Com:  0.396D+00 0.415D+00
 Coeff:     -0.321D-06-0.159D-05 0.706D-06 0.182D-05 0.585D-05-0.553D-05
 Coeff:     -0.235D-03-0.181D-03 0.153D-02 0.153D-02 0.526D-02 0.599D-02
 Coeff:     -0.177D-02-0.182D-01-0.410D-01-0.219D-01 0.240D-01 0.234D+00
 Coeff:      0.396D+00 0.415D+00
 Gap=     0.157 Goal=   None    Shift=    0.000
 Gap=     0.013 Goal=   None    Shift=    0.000
 RMSDP=3.87D-08 MaxDP=7.56D-06 DE=-4.62D-09 OVMax= 5.08D-05

 Cycle  26  Pass 1  IDiag  1:
 RMSU=  2.10D-08    CP:  1.00D+00  1.24D+00  1.03D+00  8.68D-01  1.19D+00
 E= -5186.81407957721     Delta-E=       -0.000000000629 Rises=F Damp=F
 DIIS: error= 3.16D-07 at cycle  26 NSaved=  20.
 NSaved=20 IEnMin=20 EnMin= -5186.81407957721     IErMin=20 ErrMin= 3.16D-07
 ErrMax= 3.16D-07  0.00D+00 EMaxC= 1.00D-01 BMatC= 2.84D-10 BMatP= 3.47D-09
 IDIUse=1 WtCom= 1.00D+00 WtEn= 0.00D+00
 Coeff-Com:  0.325D-05 0.961D-06-0.100D-05 0.589D-05-0.174D-04-0.648D-04
 Coeff-Com: -0.611D-04 0.584D-04-0.181D-03-0.380D-03 0.122D-02 0.693D-02
 Coeff-Com:  0.983D-03-0.106D-01-0.237D-01-0.216D-01 0.290D-01 0.726D-01
 Coeff-Com:  0.255D+00 0.691D+00
 Coeff:      0.325D-05 0.961D-06-0.100D-05 0.589D-05-0.174D-04-0.648D-04
 Coeff:     -0.611D-04 0.584D-04-0.181D-03-0.380D-03 0.122D-02 0.693D-02
 Coeff:      0.983D-03-0.106D-01-0.237D-01-0.216D-01 0.290D-01 0.726D-01
 Coeff:      0.255D+00 0.691D+00
 Gap=     0.157 Goal=   None    Shift=    0.000
 Gap=     0.013 Goal=   None    Shift=    0.000
 RMSDP=2.99D-08 MaxDP=4.30D-06 DE=-6.29D-10 OVMax= 4.09D-05

 Cycle  27  Pass 1  IDiag  1:
 RMSU=  1.20D-08    CP:  1.00D+00  1.24D+00  1.03D+00  9.52D-01  1.66D+00
                    CP:  1.52D+00
 E= -5186.81407957727     Delta-E=       -0.000000000051 Rises=F Damp=F
 DIIS: error= 1.73D-07 at cycle  27 NSaved=  20.
 NSaved=20 IEnMin=20 EnMin= -5186.81407957727     IErMin=20 ErrMin= 1.73D-07
 ErrMax= 1.73D-07  0.00D+00 EMaxC= 1.00D-01 BMatC= 1.27D-10 BMatP= 2.84D-10
 IDIUse=1 WtCom= 1.00D+00 WtEn= 0.00D+00
 Coeff-Com:  0.364D-05 0.116D-05 0.854D-06-0.185D-04 0.323D-04 0.121D-04
 Coeff-Com: -0.541D-03-0.763D-03-0.212D-02-0.102D-02 0.658D-02 0.800D-02
 Coeff-Com:  0.444D-02-0.142D-01-0.284D-01-0.423D-01-0.688D-01 0.403D-01
 Coeff-Com:  0.503D+00 0.596D+00
 Coeff:      0.364D-05 0.116D-05 0.854D-06-0.185D-04 0.323D-04 0.121D-04
 Coeff:     -0.541D-03-0.763D-03-0.212D-02-0.102D-02 0.658D-02 0.800D-02
 Coeff:      0.444D-02-0.142D-01-0.284D-01-0.423D-01-0.688D-01 0.403D-01
 Coeff:      0.503D+00 0.596D+00
 Gap=     0.157 Goal=   None    Shift=    0.000
 Gap=     0.013 Goal=   None    Shift=    0.000
 RMSDP=2.40D-08 MaxDP=3.80D-06 DE=-5.09D-11 OVMax= 3.32D-05

 Cycle  28  Pass 1  IDiag  1:
 RMSU=  6.81D-09    CP:  1.00D+00  1.24D+00  1.02D+00  9.80D-01  2.05D+00
                    CP:  2.11D+00  1.65D+00
 E= -5186.81407957723     Delta-E=        0.000000000040 Rises=F Damp=F
 DIIS: error= 1.94D-07 at cycle  28 NSaved=  20.
 NSaved=20 IEnMin=19 EnMin= -5186.81407957727     IErMin=19 ErrMin= 1.73D-07
 ErrMax= 1.94D-07  0.00D+00 EMaxC= 1.00D-01 BMatC= 1.25D-10 BMatP= 1.27D-10
 IDIUse=1 WtCom= 1.00D+00 WtEn= 0.00D+00
 Coeff-Com: -0.166D-05-0.418D-05 0.516D-05 0.651D-04 0.837D-04-0.128D-03
 Coeff-Com: -0.134D-03-0.424D-03-0.803D-03-0.101D-02 0.200D-02 0.415D-02
 Coeff-Com:  0.458D-02-0.380D-02-0.117D-02-0.380D-01-0.146D+00-0.193D+00
 Coeff-Com:  0.146D+00 0.123D+01
 Coeff:     -0.166D-05-0.418D-05 0.516D-05 0.651D-04 0.837D-04-0.128D-03
 Coeff:     -0.134D-03-0.424D-03-0.803D-03-0.101D-02 0.200D-02 0.415D-02
 Coeff:      0.458D-02-0.380D-02-0.117D-02-0.380D-01-0.146D+00-0.193D+00
 Coeff:      0.146D+00 0.123D+01
 Gap=     0.157 Goal=   None    Shift=    0.000
 Gap=     0.013 Goal=   None    Shift=    0.000
 RMSDP=3.69D-08 MaxDP=6.00D-06 DE= 4.00D-11 OVMax= 5.13D-05

 Cycle  29  Pass 1  IDiag  1:
 RMSU=  5.09D-09    CP:  1.00D+00  1.24D+00  1.04D+00  9.98D-01  2.61D+00
                    CP:  3.00D+00  2.90D+00  2.34D+00
 E= -5186.81407957758     Delta-E=       -0.000000000357 Rises=F Damp=F
 DIIS: error= 8.45D-08 at cycle  29 NSaved=  20.
 NSaved=20 IEnMin=20 EnMin= -5186.81407957758     IErMin=20 ErrMin= 8.45D-08
 ErrMax= 8.45D-08  0.00D+00 EMaxC= 1.00D-01 BMatC= 2.43D-11 BMatP= 1.25D-10
 IDIUse=1 WtCom= 1.00D+00 WtEn= 0.00D+00
 Coeff-Com: -0.202D-05 0.166D-04 0.315D-04 0.149D-04-0.471D-04 0.476D-04
 Coeff-Com:  0.186D-03-0.182D-03-0.214D-02-0.813D-03 0.258D-02 0.727D-02
 Coeff-Com:  0.621D-02-0.261D-02-0.254D-01-0.109D+00-0.251D+00-0.108D+00
 Coeff-Com:  0.773D+00 0.710D+00
 Coeff:     -0.202D-05 0.166D-04 0.315D-04 0.149D-04-0.471D-04 0.476D-04
 Coeff:      0.186D-03-0.182D-03-0.214D-02-0.813D-03 0.258D-02 0.727D-02
 Coeff:      0.621D-02-0.261D-02-0.254D-01-0.109D+00-0.251D+00-0.108D+00
 Coeff:      0.773D+00 0.710D+00
 Gap=     0.157 Goal=   None    Shift=    0.000
 Gap=     0.013 Goal=   None    Shift=    0.000
 RMSDP=2.55D-08 MaxDP=4.13D-06 DE=-3.57D-10 OVMax= 3.55D-05

 Cycle  30  Pass 1  IDiag  1:
 RMSU=  1.52D-08    CP:  1.00D+00  1.24D+00  1.04D+00  1.04D+00  2.99D+00
                    CP:  3.00D+00  3.00D+00  3.00D+00  1.94D+00
 E= -5186.81407957747     Delta-E=        0.000000000113 Rises=F Damp=F
 DIIS: error= 1.04D-07 at cycle  30 NSaved=  20.
 NSaved=20 IEnMin=19 EnMin= -5186.81407957758     IErMin=19 ErrMin= 8.45D-08
 ErrMax= 1.04D-07  0.00D+00 EMaxC= 1.00D-01 BMatC= 2.86D-11 BMatP= 2.43D-11
 IDIUse=1 WtCom= 1.00D+00 WtEn= 0.00D+00
 Coeff-Com:  0.110D-04-0.362D-04-0.572D-04 0.263D-03 0.423D-03 0.129D-02
 Coeff-Com:  0.971D-03-0.300D-02-0.464D-02-0.356D-02 0.651D-02 0.122D-01
 Coeff-Com:  0.309D-01 0.433D-01-0.294D-01-0.284D+00-0.339D+00 0.307D-01
 Coeff-Com:  0.659D+00 0.878D+00
 Coeff:      0.110D-04-0.362D-04-0.572D-04 0.263D-03 0.423D-03 0.129D-02
 Coeff:      0.971D-03-0.300D-02-0.464D-02-0.356D-02 0.651D-02 0.122D-01
 Coeff:      0.309D-01 0.433D-01-0.294D-01-0.284D+00-0.339D+00 0.307D-01
 Coeff:      0.659D+00 0.878D+00
 Gap=     0.157 Goal=   None    Shift=    0.000
 Gap=     0.013 Goal=   None    Shift=    0.000
 RMSDP=3.58D-08 MaxDP=5.91D-06 DE= 1.13D-10 OVMax= 4.99D-05

 Cycle  31  Pass 1  IDiag  1:
 RMSU=  2.45D-08    CP:  1.00D+00  1.24D+00  1.05D+00  1.07D+00  3.00D+00
                    CP:  3.00D+00  3.00D+00  3.00D+00  3.00D+00  2.55D+00
 E= -5186.81407957759     Delta-E=       -0.000000000120 Rises=F Damp=F
 DIIS: error= 2.18D-08 at cycle  31 NSaved=  20.
 NSaved=20 IEnMin=20 EnMin= -5186.81407957759     IErMin=20 ErrMin= 2.18D-08
 ErrMax= 2.18D-08  0.00D+00 EMaxC= 1.00D-01 BMatC= 4.06D-12 BMatP= 2.43D-11
 IDIUse=1 WtCom= 1.00D+00 WtEn= 0.00D+00
 Coeff-Com: -0.283D-04-0.345D-04 0.152D-03 0.190D-03 0.457D-03 0.324D-03
 Coeff-Com: -0.115D-02-0.195D-02-0.195D-02 0.204D-02 0.279D-02 0.142D-01
 Coeff-Com:  0.294D-01 0.224D-01-0.610D-01-0.153D+00-0.305D+00 0.225D+00
 Coeff-Com:  0.549D+00 0.678D+00
 Coeff:     -0.283D-04-0.345D-04 0.152D-03 0.190D-03 0.457D-03 0.324D-03
 Coeff:     -0.115D-02-0.195D-02-0.195D-02 0.204D-02 0.279D-02 0.142D-01
 Coeff:      0.294D-01 0.224D-01-0.610D-01-0.153D+00-0.305D+00 0.225D+00
 Coeff:      0.549D+00 0.678D+00
 Gap=     0.157 Goal=   None    Shift=    0.000
 Gap=     0.013 Goal=   None    Shift=    0.000
 RMSDP=1.33D-08 MaxDP=2.21D-06 DE=-1.20D-10 OVMax= 1.84D-05

 Cycle  32  Pass 1  IDiag  1:
 RMSU=  3.51D-09    CP:  1.00D+00  1.24D+00  1.06D+00  1.09D+00  3.00D+00
                    CP:  3.00D+00  3.00D+00  3.00D+00  3.00D+00  3.00D+00
                    CP:  1.36D+00
 E= -5186.81407957768     Delta-E=       -0.000000000087 Rises=F Damp=F
 DIIS: error= 1.92D-08 at cycle  32 NSaved=  20.
 NSaved=20 IEnMin=20 EnMin= -5186.81407957768     IErMin=20 ErrMin= 1.92D-08
 ErrMax= 1.92D-08  0.00D+00 EMaxC= 1.00D-01 BMatC= 1.95D-12 BMatP= 4.06D-12
 IDIUse=1 WtCom= 1.00D+00 WtEn= 0.00D+00
 Coeff-Com: -0.225D-05-0.141D-04-0.655D-04-0.245D-03-0.204D-03 0.276D-03
 Coeff-Com:  0.448D-03 0.352D-03 0.394D-04-0.142D-02-0.434D-02-0.531D-03
 Coeff-Com:  0.194D-01 0.501D-01 0.215D-01-0.197D+00-0.677D-01 0.526D-01
 Coeff-Com:  0.479D+00 0.648D+00
 Coeff:     -0.225D-05-0.141D-04-0.655D-04-0.245D-03-0.204D-03 0.276D-03
 Coeff:      0.448D-03 0.352D-03 0.394D-04-0.142D-02-0.434D-02-0.531D-03
 Coeff:      0.194D-01 0.501D-01 0.215D-01-0.197D+00-0.677D-01 0.526D-01
 Coeff:      0.479D+00 0.648D+00
 Gap=     0.157 Goal=   None    Shift=    0.000
 Gap=     0.013 Goal=   None    Shift=    0.000
 RMSDP=6.12D-09 MaxDP=1.00D-06 DE=-8.73D-11 OVMax= 8.51D-06

 Cycle  33  Pass 1  IDiag  1:
 RMSU=  2.81D-09    CP:  1.00D+00  1.24D+00  1.06D+00  1.09D+00  3.00D+00
                    CP:  3.00D+00  3.00D+00  3.00D+00  3.00D+00  3.00D+00
                    CP:  1.51D+00  1.99D+00
 E= -5186.81407957751     Delta-E=        0.000000000164 Rises=F Damp=F
 DIIS: error= 4.41D-08 at cycle  33 NSaved=  20.
 NSaved=20 IEnMin=19 EnMin= -5186.81407957768     IErMin=19 ErrMin= 1.92D-08
 ErrMax= 4.41D-08  0.00D+00 EMaxC= 1.00D-01 BMatC= 3.90D-12 BMatP= 1.95D-12
 IDIUse=1 WtCom= 1.00D+00 WtEn= 0.00D+00
 Coeff-Com: -0.145D-04-0.174D-04-0.281D-04-0.400D-04 0.379D-04-0.583D-05
 Coeff-Com:  0.394D-03 0.448D-03 0.885D-03-0.563D-02-0.416D-02 0.869D-02
 Coeff-Com:  0.237D-01 0.301D-01-0.277D-01-0.898D-01-0.631D-01 0.784D-01
 Coeff-Com:  0.390D+00 0.658D+00
 Coeff:     -0.145D-04-0.174D-04-0.281D-04-0.400D-04 0.379D-04-0.583D-05
 Coeff:      0.394D-03 0.448D-03 0.885D-03-0.563D-02-0.416D-02 0.869D-02
 Coeff:      0.237D-01 0.301D-01-0.277D-01-0.898D-01-0.631D-01 0.784D-01
 Coeff:      0.390D+00 0.658D+00
 Gap=     0.157 Goal=   None    Shift=    0.000
 Gap=     0.013 Goal=   None    Shift=    0.000
 RMSDP=2.80D-09 MaxDP=4.33D-07 DE= 1.64D-10 OVMax= 3.88D-06

 SCF Done:  E(UM06L) =  -5186.81407958     A.U. after   33 cycles
            NFock= 33  Conv=0.28D-08     -V/T= 2.0017
 <Sx>= 0.0000 <Sy>= 0.0000 <Sz>= 7.0000 <S**2>=56.0606 S= 7.0040
 <L.S>=  0.00000000000    
 KE= 5.178242213287D+03 PE=-2.120389856888D+04 EE= 6.391913049032D+03
 Annihilation of the first spin contaminant:
 S**2 before annihilation    56.0606,   after    56.0003
 Leave Link  502 at Wed May 10 10:35:48 2023, MaxMem= 14763950080 cpu:            7779.0 elap:            4191.5
 (Enter /software/commercial/gaussian/g16/AVX2/g16/l508.exe)
 QCSCF skips out because SCF is already converged.
 Leave Link  508 at Wed May 10 10:35:50 2023, MaxMem= 14763950080 cpu:               0.0 elap:               0.8
 (Enter /software/commercial/gaussian/g16/AVX2/g16/l601.exe)
 Copying SCF densities to generalized density rwf, IOpCl= 1 IROHF=0.

 **********************************************************************

            Population analysis using the SCF Density.

 **********************************************************************

 Alpha  occ. eigenvalues -- -255.62596-255.62388-255.62085 -30.07050 -30.06899
 Alpha  occ. eigenvalues --  -30.06523 -25.84708 -25.84640 -25.84303 -25.84072
 Alpha  occ. eigenvalues --  -25.83857 -25.83668 -25.83512 -25.83460 -25.83146
 Alpha  occ. eigenvalues --  -19.09271 -18.98322 -18.98308 -18.98287 -18.98277
 Alpha  occ. eigenvalues --  -18.98275 -18.98270 -18.98238 -18.98233 -18.98222
 Alpha  occ. eigenvalues --  -18.98220 -18.98219 -18.98218 -18.96659 -14.40982
 Alpha  occ. eigenvalues --  -14.28422 -10.18087 -10.18080 -10.18078 -10.18070
 Alpha  occ. eigenvalues --  -10.17915 -10.17915  -3.63997  -3.63811  -3.63441
 Alpha  occ. eigenvalues --   -2.39216  -2.39156  -2.38855  -2.37822  -2.37538
 Alpha  occ. eigenvalues --   -2.37113  -2.37058  -2.36849  -2.36489  -1.23384
 Alpha  occ. eigenvalues --   -1.07024  -1.06773  -1.06741  -1.06506  -1.06461
 Alpha  occ. eigenvalues --   -1.06402  -1.06367  -0.99245  -0.99216  -0.98877
 Alpha  occ. eigenvalues --   -0.98787  -0.98758  -0.98666  -0.94354  -0.61619
 Alpha  occ. eigenvalues --   -0.59799  -0.58678  -0.58519  -0.58343  -0.58314
 Alpha  occ. eigenvalues --   -0.58139  -0.55086  -0.54555  -0.49721  -0.49643
 Alpha  occ. eigenvalues --   -0.49028  -0.48129  -0.48007  -0.47893  -0.47680
 Alpha  occ. eigenvalues --   -0.47663  -0.47653  -0.47141  -0.46804  -0.46688
 Alpha  occ. eigenvalues --   -0.45986  -0.44322  -0.44081  -0.43960  -0.42798
 Alpha  occ. eigenvalues --   -0.42683  -0.42182  -0.40771  -0.40699  -0.39250
 Alpha  occ. eigenvalues --   -0.38081  -0.37888  -0.37579  -0.37554  -0.37449
 Alpha  occ. eigenvalues --   -0.37050  -0.36913  -0.36379  -0.36329  -0.36134
 Alpha  occ. eigenvalues --   -0.34727  -0.34237  -0.33619  -0.33098  -0.33069
 Alpha  occ. eigenvalues --   -0.32864  -0.29927  -0.29829  -0.29291  -0.29234
 Alpha  occ. eigenvalues --   -0.29131  -0.29034  -0.28996  -0.28765  -0.28653
 Alpha  occ. eigenvalues --   -0.28160  -0.28030  -0.27745  -0.27720  -0.25787
 Alpha  occ. eigenvalues --   -0.24420  -0.23211  -0.23065  -0.22354  -0.22014
[...]
 <Sx>= 0.0000 <Sy>= 0.0000 <Sz>= 0.0000 <S**2>=-0.0000 S=-0.0000
 <L.S>=  0.00000000000    
 KE= 1.841449614964D+02 PE=-5.558036421632D+02 EE= 1.259465497721D+02
 Annihilation of the first spin contaminant:
 S**2 before annihilation    -0.0000,   after     0.0000
 Leave Link  502 at Wed May 10 13:28:52 2023, MaxMem= 14763950080 cpu:               7.5 elap:               9.9
 (Enter /software/commercial/gaussian/g16/AVX2/g16/l508.exe)
 QCSCF skips out because SCF is already converged.
 Leave Link  508 at Wed May 10 13:28:53 2023, MaxMem= 14763950080 cpu:               0.0 elap:               0.5
 (Enter /software/commercial/gaussian/g16/AVX2/g16/l601.exe)
 Copying SCF densities to generalized density rwf, IOpCl= 1 IROHF=0.

 **********************************************************************

            Population analysis using the SCF Density.

 **********************************************************************

 Alpha  occ. eigenvalues --  -19.06305 -14.38822 -14.25801  -1.20706  -1.04196
 Alpha  occ. eigenvalues --   -0.57367  -0.52392  -0.52392  -0.43813  -0.31141
 Alpha  occ. eigenvalues --   -0.31140
 Alpha virt. eigenvalues --   -0.03581  -0.03569   0.08190   0.24217   0.31079
 Alpha virt. eigenvalues --    0.32139   0.32140   0.35585   0.43265   0.43301
 Alpha virt. eigenvalues --    0.43690   0.55107   0.55109   0.69418   0.79023
 Alpha virt. eigenvalues --    0.79023   0.81420   0.85183   1.07880   1.07928
 Alpha virt. eigenvalues --    1.16045   1.16045   1.48978   1.59928   1.59929
 Alpha virt. eigenvalues --    1.64697   1.64703   1.78084   1.90358   1.97350
 Alpha virt. eigenvalues --    1.97354   2.15410   2.15422   2.16239   2.25762
 Alpha virt. eigenvalues --    2.37722   2.37738   2.88174   2.94079   2.94108
 Alpha virt. eigenvalues --    3.13985   3.48920   3.49804   3.49805   3.67178
 Alpha virt. eigenvalues --    3.67178   4.00220   4.00238   4.14964   4.14964
 Alpha virt. eigenvalues --    4.30046   4.30051   4.31129   4.31130   4.36650
 Alpha virt. eigenvalues --    4.54796   4.54797   4.68892   4.74047   4.74047
 Alpha virt. eigenvalues --    4.97409   5.01610   5.01851   5.22784   5.22787
 Alpha virt. eigenvalues --    5.83111   5.83112   5.90526   5.90837   5.94240
 Alpha virt. eigenvalues --    6.30321   6.33343   6.33345   6.93575   6.93582
 Alpha virt. eigenvalues --    7.42803   7.43104   7.43345   7.68118  31.91745
 Alpha virt. eigenvalues --   32.93107  44.32033
  Beta  occ. eigenvalues --  -19.06305 -14.38822 -14.25801  -1.20706  -1.04196
  Beta  occ. eigenvalues --   -0.57367  -0.52392  -0.52392  -0.43813  -0.31141
  Beta  occ. eigenvalues --   -0.31140
  Beta virt. eigenvalues --   -0.03581  -0.03569   0.08190   0.24217   0.31079
  Beta virt. eigenvalues --    0.32139   0.32140   0.35585   0.43265   0.43301
  Beta virt. eigenvalues --    0.43690   0.55107   0.55109   0.69418   0.79023
  Beta virt. eigenvalues --    0.79023   0.81420   0.85183   1.07880   1.07928
  Beta virt. eigenvalues --    1.16045   1.16045   1.48978   1.59928   1.59929
  Beta virt. eigenvalues --    1.64697   1.64703   1.78084   1.90358   1.97350
  Beta virt. eigenvalues --    1.97354   2.15410   2.15422   2.16239   2.25762
  Beta virt. eigenvalues --    2.37722   2.37738   2.88174   2.94079   2.94108
  Beta virt. eigenvalues --    3.13985   3.48920   3.49804   3.49805   3.67178
  Beta virt. eigenvalues --    3.67178   4.00220   4.00238   4.14964   4.14964
  Beta virt. eigenvalues --    4.30046   4.30051   4.31129   4.31130   4.36650
  Beta virt. eigenvalues --    4.54796   4.54797   4.68892   4.74047   4.74047
  Beta virt. eigenvalues --    4.97409   5.01610   5.01851   5.22784   5.22787
  Beta virt. eigenvalues --    5.83111   5.83112   5.90526   5.90837   5.94240
  Beta virt. eigenvalues --    6.30321   6.33343   6.33345   6.93575   6.93582
  Beta virt. eigenvalues --    7.42803   7.43104   7.43345   7.68118  31.91745
  Beta virt. eigenvalues --   32.93107  44.32033
          Condensed to atoms (all electrons):
              29         30         31
    29  N    6.160071   0.076228   0.217111
    30  N    0.076228   7.116417  -0.088034
    31  O    0.217111  -0.088034   8.312903
          Atomic-Atomic Spin Densities.
              29         30         31
    29  N    0.000000   0.000000   0.000000
    30  N    0.000000   0.000000   0.000000
    31  O    0.000000   0.000000   0.000000
 Mulliken charges and spin densities:
               1          2
     1  O    0.000000   0.000000
     2  O    0.000000   0.000000
     3  C    0.000000   0.000000
     4  H    0.000000   0.000000
     5  O    0.000000   0.000000
     6  O    0.000000   0.000000
     7  C    0.000000   0.000000
     8  H    0.000000   0.000000
     9  O    0.000000   0.000000
    10  O    0.000000   0.000000
    11  O    0.000000   0.000000
    12  C    0.000000   0.000000
    13  H    0.000000   0.000000
    14  O    0.000000   0.000000
    15  O    0.000000   0.000000
    16  C    0.000000   0.000000
    17  H    0.000000   0.000000
    18  Fe   0.000000   0.000000
    19  O    0.000000   0.000000
    20  Fe   0.000000   0.000000
    21  O    0.000000   0.000000
    22  O    0.000000   0.000000
    23  Fe   0.000000   0.000000
    24  O    0.000000   0.000000
    25  C    0.000000   0.000000
    26  H    0.000000   0.000000
    27  C    0.000000   0.000000
    28  H    0.000000   0.000000
    29  N    0.546590   0.000000
    30  N   -0.104611   0.000000
    31  O   -0.441979   0.000000
 Sum of Mulliken charges =  -0.00000   0.00000
 Mulliken charges and spin densities with hydrogens summed into heavy atoms:
               1          2
     1  O    0.000000   0.000000
     2  O    0.000000   0.000000
     3  C    0.000000   0.000000
     5  O    0.000000   0.000000
     6  O    0.000000   0.000000
     7  C    0.000000   0.000000
     9  O    0.000000   0.000000
    10  O    0.000000   0.000000
    11  O    0.000000   0.000000
    12  C    0.000000   0.000000
    14  O    0.000000   0.000000
    15  O    0.000000   0.000000
    16  C    0.000000   0.000000
    18  Fe   0.000000   0.000000
    19  O    0.000000   0.000000
    20  Fe   0.000000   0.000000
    21  O    0.000000   0.000000
    22  O    0.000000   0.000000
    23  Fe   0.000000   0.000000
    24  O    0.000000   0.000000
    25  C    0.000000   0.000000
    27  C    0.000000   0.000000
    29  N    0.546590   0.000000
    30  N   -0.104611   0.000000
    31  O   -0.441979   0.000000
         Mulliken charges and spin densities condensed to fragments:
      1      0.000000      0.000000
      2     -0.000000      0.000000
 Electronic spatial extent (au):  <R**2>=           1614.8149
 Charge=             -0.0000 electrons
 Dipole moment (field-independent basis, Debye):
    X=              0.0601    Y=              0.0609    Z=             -0.0013  Tot=              0.0856
 Quadrupole moment (field-independent basis, Debye-Ang):
   XX=            -16.8925   YY=            -17.2715   ZZ=            -14.9409
   XY=             -2.0887   XZ=              0.0367   YZ=              0.0380
 Traceless Quadrupole moment (field-independent basis, Debye-Ang):
   XX=             -0.5242   YY=             -0.9032   ZZ=              1.4274
   XY=             -2.0887   XZ=              0.0367   YZ=              0.0380
 Octapole moment (field-independent basis, Debye-Ang**2):
  XXX=            220.8913  YYY=             -2.1589  ZZZ=             -4.2169  XYY=             76.7098
  XXY=             16.7810  XXZ=             -1.8429  XZZ=             66.0802  YZZ=             -0.8170
  YYZ=             -1.6304  XYZ=             -0.3445
 Hexadecapole moment (field-independent basis, Debye-Ang**3):
 XXXX=          -1991.3674 YYYY=            -67.5695 ZZZZ=            -12.2509 XXXY=           -127.2379
 XXXZ=             22.7442 YYYX=            -12.4594 YYYZ=              0.1874 ZZZX=             18.9477
 ZZZY=              0.1509 XXYY=           -359.7500 XXZZ=           -301.8273 YYZZ=            -13.2389
 XXYZ=              2.3907 YYXZ=              7.3473 ZZXY=             -3.5947
 N-N= 6.097820739476D+01 E-N=-5.558036415390D+02  KE= 1.841449614964D+02
 There are a total of       66322 grid points.
 ElSum from          density=       21.9999999055
 ElSum from atomic densities=       21.9999999885
 Hirshfeld populations at iteration   1 (CA, CB, DipXYZ):
               1          2          3          4          5
     1  O    0.000000   0.000000   0.000000   0.000000   0.000000
     2  O    0.000000   0.000000   0.000000   0.000000   0.000000
     3  C    0.000000   0.000000   0.000000   0.000000   0.000000
     4  H    0.000000   0.000000   0.000000   0.000000   0.000000
     5  O    0.000000   0.000000   0.000000   0.000000   0.000000
     6  O    0.000000   0.000000   0.000000   0.000000   0.000000
     7  C    0.000000   0.000000   0.000000   0.000000   0.000000
     8  H    0.000000   0.000000   0.000000   0.000000   0.000000
     9  O    0.000000   0.000000   0.000000   0.000000   0.000000
    10  O    0.000000   0.000000   0.000000   0.000000   0.000000
    11  O    0.000000   0.000000   0.000000   0.000000   0.000000
    12  C    0.000000   0.000000   0.000000   0.000000   0.000000
    13  H    0.000000   0.000000   0.000000   0.000000   0.000000
    14  O    0.000000   0.000000   0.000000   0.000000   0.000000
    15  O    0.000000   0.000000   0.000000   0.000000   0.000000
    16  C    0.000000   0.000000   0.000000   0.000000   0.000000
    17  H    0.000000   0.000000   0.000000   0.000000   0.000000
    18  Fe   0.000000   0.000000   0.000000   0.000000   0.000000
    19  O    0.000000   0.000000   0.000000   0.000000   0.000000
    20  Fe   0.000000   0.000000   0.000000   0.000000   0.000000
    21  O    0.000000   0.000000   0.000000   0.000000   0.000000
    22  O    0.000000   0.000000   0.000000   0.000000   0.000000
    23  Fe   0.000000   0.000000   0.000000   0.000000   0.000000
    24  O    0.000000   0.000000   0.000000   0.000000   0.000000
    25  C    0.000000   0.000000   0.000000   0.000000   0.000000
    26  H    0.000000   0.000000   0.000000   0.000000   0.000000
    27  C    0.000000   0.000000   0.000000   0.000000   0.000000
    28  H    0.000000   0.000000   0.000000   0.000000   0.000000
    29  N    3.389685   3.389685   0.070251   0.086090  -0.001309
    30  N    3.544338   3.544338   0.074086   0.097283  -0.001278
    31  O    4.065977   4.065977  -0.057597  -0.072348   0.001045
       Tot  11.000000  11.000000   0.086740   0.111025  -0.001542

 Dip from Atomic Chgs             -0.063081  -0.087058   0.001021
         Total Dipole              0.023659   0.023967  -0.000521

 Hirshfeld charges, spin densities, dipoles, and CM5 charges using IRadAn=      5:
              Q-H        S-H        Dx         Dy         Dz        Q-CM5   
     1  O    0.000000   0.000000   0.000000   0.000000   0.000000   0.000000
     2  O    0.000000   0.000000   0.000000   0.000000   0.000000   0.000000
     3  C    0.000000   0.000000   0.000000   0.000000   0.000000   0.000000
     4  H    0.000000   0.000000   0.000000   0.000000   0.000000   0.000000
     5  O    0.000000   0.000000   0.000000   0.000000   0.000000   0.000000
     6  O    0.000000   0.000000   0.000000   0.000000   0.000000   0.000000
     7  C    0.000000   0.000000   0.000000   0.000000   0.000000   0.000000
     8  H    0.000000   0.000000   0.000000   0.000000   0.000000   0.000000
     9  O    0.000000   0.000000   0.000000   0.000000   0.000000   0.000000
    10  O    0.000000   0.000000   0.000000   0.000000   0.000000   0.000000
    11  O    0.000000   0.000000   0.000000   0.000000   0.000000   0.000000
    12  C    0.000000   0.000000   0.000000   0.000000   0.000000   0.000000
    13  H    0.000000   0.000000   0.000000   0.000000   0.000000   0.000000
    14  O    0.000000   0.000000   0.000000   0.000000   0.000000   0.000000
    15  O    0.000000   0.000000   0.000000   0.000000   0.000000   0.000000
    16  C    0.000000   0.000000   0.000000   0.000000   0.000000   0.000000
    17  H    0.000000   0.000000   0.000000   0.000000   0.000000   0.000000
    18  Fe   0.000000   0.000000   0.000000   0.000000   0.000000   0.000000
    19  O    0.000000   0.000000   0.000000   0.000000   0.000000   0.000000
    20  Fe   0.000000   0.000000   0.000000   0.000000   0.000000   0.000000
    21  O    0.000000   0.000000   0.000000   0.000000   0.000000   0.000000
    22  O    0.000000   0.000000   0.000000   0.000000   0.000000   0.000000
    23  Fe   0.000000   0.000000   0.000000   0.000000   0.000000   0.000000
    24  O    0.000000   0.000000   0.000000   0.000000   0.000000   0.000000
    25  C    0.000000   0.000000   0.000000   0.000000   0.000000   0.000000
    26  H    0.000000   0.000000   0.000000   0.000000   0.000000   0.000000
    27  C    0.000000   0.000000   0.000000   0.000000   0.000000   0.000000
    28  H    0.000000   0.000000   0.000000   0.000000   0.000000   0.000000
    29  N    0.220629   0.000000   0.070251   0.086090  -0.001309   0.168550
    30  N   -0.088675   0.000000   0.074086   0.097283  -0.001278  -0.091922
    31  O   -0.131954   0.000000  -0.057597  -0.072348   0.001045  -0.076628
       Tot   0.000000   0.000000   0.086740   0.111025  -0.001542   0.000000
 Hirshfeld charges and spin densities with hydrogens summed into heavy atoms:
              Q-H        S-H       Q-CM5   
     1  O    0.000000   0.000000   0.000000
     2  O    0.000000   0.000000   0.000000
     3  C    0.000000   0.000000   0.000000
     5  O    0.000000   0.000000   0.000000
     6  O    0.000000   0.000000   0.000000
     7  C    0.000000   0.000000   0.000000
     9  O    0.000000   0.000000   0.000000
    10  O    0.000000   0.000000   0.000000
    11  O    0.000000   0.000000   0.000000
    12  C    0.000000   0.000000   0.000000
    14  O    0.000000   0.000000   0.000000
    15  O    0.000000   0.000000   0.000000
    16  C    0.000000   0.000000   0.000000
    18  Fe   0.000000   0.000000   0.000000
    19  O    0.000000   0.000000   0.000000
    20  Fe   0.000000   0.000000   0.000000
    21  O    0.000000   0.000000   0.000000
    22  O    0.000000   0.000000   0.000000
    23  Fe   0.000000   0.000000   0.000000
    24  O    0.000000   0.000000   0.000000
    25  C    0.000000   0.000000   0.000000
    27  C    0.000000   0.000000   0.000000
    29  N    0.220629   0.000000   0.168550
    30  N   -0.088675   0.000000  -0.091922
    31  O   -0.131954   0.000000  -0.076628
         Hirshfeld charges and spin densities condensed to fragments:
      1      0.000000      0.000000
      2      0.000000      0.000000
 
 EQQ=  0.00000000000     EQD=  0.00000000000     EDD= 0.373580800465E-03
 EQQ+QD+DD= 0.373580800465E-03
 
                          Isotropic Fermi Contact Couplings
        Atom                 a.u.       MegaHertz       Gauss      10(-4) cm-1
    29  N(14)              0.00000       0.00000       0.00000       0.00000
    30  N(14)              0.00000       0.00000       0.00000       0.00000
    31  O(17)              0.00000      -0.00000      -0.00000      -0.00000
 --------------------------------------------------------
       Center         ----  Spin Dipole Couplings  ----
                      3XX-RR        3YY-RR        3ZZ-RR
 --------------------------------------------------------
    29   Atom        0.000000      0.000000      0.000000
    30   Atom        0.000000      0.000000      0.000000
    31   Atom        0.000000      0.000000      0.000000
 --------------------------------------------------------
                        XY            XZ            YZ
 --------------------------------------------------------
    29   Atom        0.000000      0.000000      0.000000
    30   Atom        0.000000      0.000000      0.000000
    31   Atom        0.000000      0.000000      0.000000
 --------------------------------------------------------


 ---------------------------------------------------------------------------------
              Anisotropic Spin Dipole Couplings in Principal Axis System
 ---------------------------------------------------------------------------------

       Atom             a.u.   MegaHertz   Gauss  10(-4) cm-1        Axes

              Baa     0.0000     0.000     0.000     0.000  1.0000  0.0000  0.0000
    29 N(14)  Bbb     0.0000     0.000     0.000     0.000 -0.0000  1.0000  0.0000
              Bcc     0.0000     0.000     0.000     0.000  0.0000  0.0000  1.0000
 
              Baa     0.0000     0.000     0.000     0.000  1.0000  0.0000  0.0000
    30 N(14)  Bbb     0.0000     0.000     0.000     0.000 -0.0000  1.0000  0.0000
              Bcc     0.0000     0.000     0.000     0.000  0.0000  0.0000  1.0000
 
              Baa     0.0000    -0.000    -0.000    -0.000  1.0000  0.0000  0.0000
    31 O(17)  Bbb     0.0000    -0.000    -0.000    -0.000 -0.0000  1.0000  0.0000
              Bcc     0.0000    -0.000    -0.000    -0.000  0.0000  0.0000  1.0000
 

 ---------------------------------------------------------------------------------

 No NMR shielding tensors so no spin-rotation constants.
 Leave Link  601 at Wed May 10 13:28:55 2023, MaxMem= 14763950080 cpu:               0.3 elap:               0.7
 (Enter /software/commercial/gaussian/g16/AVX2/g16/l122.exe)
 CPIOFr:  IOpCl= 1 IRwI=-1 IRwCP=  731 ICalc=  4 LCPTot=     1101821 Len1MO=     3656060 IndFrg=    19382121
 Restoring MOs from calculation   1 to rwf.
 CPIOFr:  IOpCl= 1 IRwI=-2 IRwCP=  731 ICalc=  0 LCPTot=     1101821 Len1MO=     3656060 IndFrg=     4757881
 Counterpoise corrected energy =   -5186.812907963524
                   BSSE energy =       0.001171613989
              sum of fragments =   -5186.799646373279
           complexation energy =      -9.06 kcal/mole (raw)
           complexation energy =      -8.32 kcal/mole (corrected)
 Leave Link  122 at Wed May 10 13:28:56 2023, MaxMem= 14763950080 cpu:               0.1 elap:               1.0
 (Enter /software/commercial/gaussian/g16/AVX2/g16/l9999.exe)
 Unable to Open any file for archive entry.
 1\1\GINC-NODE0250\SP\UM06L\Gen\C6H6Fe3N2O14(15)\SVICCHI\10-May-2023\0\
 \#p gen um06l int=grid=ultrafine scf=(xqc,intrep,maxconventionalcycle=
 150) pop=(hirshfeld) nosymm counterpoise=2\\FeFeFe-AO-0xH2O-counterpoi
 se\\0,15\O,0,0.989679,2.540321,1.35843\O,0,-1.187444,1.958685,1.460547
 \C,0,-0.180015,2.621179,1.802317\H,0,-0.341842,3.368752,2.597484\O,0,2
 .323172,-1.751258,-1.440705\O,0,2.896338,0.42883,-1.482264\C,0,2.96833
 3,-0.762291,-1.864669\H,0,3.684037,-0.9671,-2.678484\O,0,-1.943795,-0.
 839586,1.47315\O,0,2.957111,0.470581,1.343816\O,0,2.388727,-1.711165,1
 .36585\C,0,3.047758,-0.713331,1.744828\H,0,3.796695,-0.901335,2.532397
 \O,0,-1.248871,1.947948,-1.417608\O,0,0.936488,2.50524,-1.467525\C,0,-
 0.258886,2.591179,-1.836906\H,0,-0.463094,3.324565,-2.635527\Fe,0,-1.3
 82471,0.525741,0.031911\O,0,-2.011247,-0.848941,-1.370197\Fe,0,0.90801
 5,-1.858177,-0.00279\O,0,-0.453959,-2.48235,-1.366919\O,0,-0.38226,-2.
 468416,1.432047\Fe,0,1.748955,1.300598,-0.05602\O,0,0.417765,-0.041146
 ,-0.008069\C,0,-1.512554,-1.93279,-1.75377\H,0,-2.074845,-2.47404,-2.5
 34271\C,0,-1.425787,-1.914938,1.853872\H,0,-1.952313,-2.444526,2.66665
 4\N,0,-4.418096,0.050515,0.093843\N,0,-5.115075,-0.828302,0.106438\O,0
 ,-3.696744,0.990223,0.081283\\Version=ES64L-G16RevC.02\HF=-184.7339235
 \S2=0.\S2-1=0.\S2A=0.\RMSD=3.055e-09\Dipole=-0.5372838,0.0890139,0.011
 876\Quadrupole=2.5117656,-3.3727835,0.8610179,-1.4549456,0.000738,0.05
 54349\PG=C01 [X(C6H6Fe3N2O14)]\\@
 The archive entry for this job was punched.


 LIFE CAN ONLY BE UNDERSTOOD BACKWARD, BUT MUST
 BE LIVED FORWARD. -- KIRKEGAARD
 Job cpu time:       0 days  7 hours 41 minutes 22.0 seconds.
 Elapsed time:       0 days  4 hours  2 minutes 58.8 seconds.
 File lengths (MBytes):  RWF=    892 Int=      0 D2E=      0 Chk=    194 Scr=      1
 Normal termination of Gaussian 16 at Wed May 10 13:29:02 2023.
