 Entering Gaussian System, Link 0=g16
 Input=FeFeFe-AO-0xH2O-opt.gjf
 Output=FeFeFe-AO-0xH2O-opt.log
 AtFile(1): /zfs/curium/svicchi/00-MOF/01-Gaussian/zw-basis-set/def2-TZVP/H.gbs
            !----------------------------------------------------------------------
            ! Basis Set Exchange
            ! Version v0.9
            ! https://www.basissetexchange.org
            !----------------------------------------------------------------------
            !   Basis set: def2-TZVP
            ! Description: def2-TZVP
            !        Role: orbital
            !     Version: 1  (Data from Turbomole 7.3)
            !----------------------------------------------------------------------
            H     0
            S    3   1.00
                 34.0613410              0.60251978D-02
                  5.1235746              0.45021094D-01
                  1.1646626              0.20189726
            S    1   1.00
                  0.32723041             1.0000000
            S    1   1.00
                  0.10307241             1.0000000
            P    1   1.00
                  0.8000000              1.0000000
 AtFile(1): /zfs/curium/svicchi/00-MOF/01-Gaussian/zw-basis-set/def2-TZVP/O.gbs
            !----------------------------------------------------------------------
            ! Basis Set Exchange
            ! Version v0.9
            ! https://www.basissetexchange.org
            !----------------------------------------------------------------------
            !   Basis set: def2-TZVP
            ! Description: def2-TZVP
            !        Role: orbital
            !     Version: 1  (Data from Turbomole 7.3)
            !----------------------------------------------------------------------
            O     0
            S    6   1.00
              27032.3826310              0.21726302465D-03
               4052.3871392              0.16838662199D-02
                922.32722710             0.87395616265D-02
                261.24070989             0.35239968808D-01
                 85.354641351            0.11153519115
                 31.035035245            0.25588953961
            S    2   1.00
                 12.260860728            0.39768730901
                  4.9987076005           0.24627849430
            S    1   1.00
                  1.1703108158           1.0000000
            S    1   1.00
                  0.46474740994          1.0000000
            S    1   1.00
                  0.18504536357          1.0000000
            P    4   1.00
                 63.274954801            0.60685103418D-02
                 14.627049379            0.41912575824D-01
                  4.4501223456           0.16153841088
                  1.5275799647           0.35706951311
            P    1   1.00
                  0.52935117943           .44794207502
            P    1   1.00
                  0.17478421270           .24446069663
            D    1   1.00
                  2.31400000             1.0000000
            D    1   1.00
                  0.64500000             1.0000000
            F    1   1.00
                  1.42800000             1.0000000
 AtFile(1): /zfs/curium/svicchi/00-MOF/01-Gaussian/zw-basis-set/def2-TZVP/C.gbs
            !----------------------------------------------------------------------
            ! Basis Set Exchange
            ! Version v0.9
            ! https://www.basissetexchange.org
            !----------------------------------------------------------------------
            !   Basis set: def2-TZVP
            ! Description: def2-TZVP
            !        Role: orbital
            !     Version: 1  (Data from Turbomole 7.3)
            !----------------------------------------------------------------------
            C     0
            S    6   1.00
              13575.3496820              0.22245814352D-03
               2035.2333680              0.17232738252D-02
                463.22562359             0.89255715314D-02
                131.20019598             0.35727984502D-01
                 42.853015891            0.11076259931
                 15.584185766            0.24295627626
            S    2   1.00
                  6.2067138508           0.41440263448
                  2.5764896527           0.23744968655
            S    1   1.00
                  0.57696339419          1.0000000
            S    1   1.00
                  0.22972831358          1.0000000
            S    1   1.00
                  0.95164440028D-01      1.0000000
            P    4   1.00
                 34.697232244            0.53333657805D-02
                  7.9582622826           0.35864109092D-01
                  2.3780826883           0.14215873329
                  0.81433208183          0.34270471845
            P    1   1.00
                  0.28887547253           .46445822433
            P    1   1.00
                  0.10056823671           .24955789874
            D    1   1.00
                  1.09700000             1.0000000
            D    1   1.00
                  0.31800000             1.0000000
            F    1   1.00
                  0.76100000             1.0000000
 AtFile(1): /zfs/curium/svicchi/00-MOF/01-Gaussian/zw-basis-set/def2-TZVP/Fe.gbs
            !----------------------------------------------------------------------
            ! Basis Set Exchange
            ! Version v0.9
            ! https://www.basissetexchange.org
            !----------------------------------------------------------------------
            !   Basis set: def2-TZVP
            ! Description: def2-TZVP
            !        Role: orbital
            !     Version: 1  (Data from Turbomole 7.3)
            !----------------------------------------------------------------------
            Fe     0
            S    8   1.00
             300784.8463700              0.22806273096D-03
              45088.9705570              0.17681788761D-02
              10262.5163170              0.91927083490D-02
               2905.2897293              0.37355495807D-01
                946.11487137             0.12151108426
                339.87832894             0.28818881468
                131.94425588             0.41126612677
                 52.111494077            0.21518583573
            S    4   1.00
                329.48839267            -0.24745216477D-01
                101.92332739            -0.11683089050
                 16.240462745            0.55293621136
                  6.8840675801           0.53601640182
            S    2   1.00
                 10.470693782           -0.22912708577
                  1.7360039648           0.71159319984
            S    1   1.00
                  0.72577288979          1.0000000
            S    1   1.00
                  0.11595528203          1.0000000
            S    1   1.00
                  0.41968227746D-01      1.0000000
            P    6   1.00
               1585.3959970              0.23793960179D-02
                375.38006499             0.19253154755D-01
                120.31816501             0.90021836536D-01
                 44.788749031            0.25798172356
                 17.829278584            0.41492649744
                  7.2247153786           0.24207474784
            P    3   1.00
                 28.143219756           -0.29041755152D-01
                  3.8743241412           0.55312260343
                  1.5410752281           0.96771136842
            P    1   1.00
                  0.58285615250          1.0000000
            P    1   1.00
                  0.1349150              1.0000000
            D    4   1.00
                 61.996675034            0.11971972255D-01
                 17.873732552            0.73210135410D-01
                  6.2744782934           0.23103094314
                  2.3552337175           0.39910706494
            D    1   1.00
                  0.85432239901           .41391589765
            D    1   1.00
                  0.27869254413           .21909269782
            D    1   1.00
                  0.0910000              1.0000000
            F    1   1.00
                  1.5980000              1.0000000
 AtFile(1): /zfs/curium/svicchi/00-MOF/01-Gaussian/zw-basis-set/def2-TZVP/N.gbs
            !----------------------------------------------------------------------
            ! Basis Set Exchange
            ! Version v0.9
            ! https://www.basissetexchange.org
            !----------------------------------------------------------------------
            !   Basis set: def2-TZVP
            ! Description: def2-TZVP
            !        Role: orbital
            !     Version: 1  (Data from Turbomole 7.3)
            !----------------------------------------------------------------------
            N     0
            S    6   1.00
              19730.8006470              0.21887984991D-03
               2957.8958745              0.16960708803D-02
                673.22133595             0.87954603538D-02
                190.68249494             0.35359382605D-01
                 62.295441898            0.11095789217
                 22.654161182            0.24982972552
            S    2   1.00
                  8.9791477428           0.40623896148
                  3.6863002370           0.24338217176
            S    1   1.00
                  0.84660076805          1.0000000
            S    1   1.00
                  0.33647133771          1.0000000
            S    1   1.00
                  0.13647653675          1.0000000
            P    4   1.00
                 49.200380510            0.55552416751D-02
                 11.346790537            0.38052379723D-01
                  3.4273972411           0.14953671029
                  1.1785525134           0.34949305230
            P    1   1.00
                  0.41642204972           .45843153697
            P    1   1.00
                  0.14260826011           .24428771672
            D    1   1.00
                  1.65400000             1.0000000
            D    1   1.00
                  0.46900000             1.0000000
            F    1   1.00
                  1.09300000             1.0000000
 Initial command:
 /software/commercial/gaussian/g16/AVX2/g16/l1.exe "/scratch1/svicchi/G09-56282.pbs02/Gau-767610.inp" -scrdir="/scratch1/svicchi/G09-56282.pbs02/"
 Entering Link 1 = /software/commercial/gaussian/g16/AVX2/g16/l1.exe PID=    767611.
  
 Copyright (c) 1988-2021, Gaussian, Inc.  All Rights Reserved.
  
 This is part of the Gaussian(R) 16 program.  It is based on
 the Gaussian(R) 09 system (copyright 2009, Gaussian, Inc.),
 the Gaussian(R) 03 system (copyright 2003, Gaussian, Inc.),
 the Gaussian(R) 98 system (copyright 1998, Gaussian, Inc.),
 the Gaussian(R) 94 system (copyright 1995, Gaussian, Inc.),
 the Gaussian 92(TM) system (copyright 1992, Gaussian, Inc.),
 the Gaussian 90(TM) system (copyright 1990, Gaussian, Inc.),
 the Gaussian 88(TM) system (copyright 1988, Gaussian, Inc.),
 the Gaussian 86(TM) system (copyright 1986, Carnegie Mellon
 University), and the Gaussian 82(TM) system (copyright 1983,
 Carnegie Mellon University). Gaussian is a federally registered
 trademark of Gaussian, Inc.
  
 This software contains proprietary and confidential information,
 including trade secrets, belonging to Gaussian, Inc.
  
 This software is provided under written license and may be
 used, copied, transmitted, or stored only in accord with that
 written license.
  
 The following legend is applicable only to US Government
 contracts under FAR:
  
                    RESTRICTED RIGHTS LEGEND
  
 Use, reproduction and disclosure by the US Government is
 subject to restrictions as set forth in subparagraphs (a)
 and (c) of the Commercial Computer Software - Restricted
 Rights clause in FAR 52.227-19.
  
 Gaussian, Inc.
 340 Quinnipiac St., Bldg. 40, Wallingford CT 06492
  
  
 ---------------------------------------------------------------
 Warning -- This program may not be used in any manner that
 competes with the business of Gaussian, Inc. or will provide
 assistance to any competitor of Gaussian, Inc.  The licensee
 of this program is prohibited from giving any competitor of
 Gaussian, Inc. access to this program.  By using this program,
 the user acknowledges that Gaussian, Inc. is engaged in the
 business of creating and licensing software in the field of
 computational chemistry and represents and warrants to the
 licensee that it is not a competitor of Gaussian, Inc. and that
 it will not use this program in any manner prohibited above.
 ---------------------------------------------------------------
  

 Cite this work as:
 Gaussian 16, Revision C.02,
 M. J. Frisch, G. W. Trucks, H. B. Schlegel, G. E. Scuseria, 
 M. A. Robb, J. R. Cheeseman, G. Scalmani, V. Barone, 
 G. A. Petersson, H. Nakatsuji, X. Li, M. Caricato, A. V. Marenich, 
 J. Bloino, B. G. Janesko, R. Gomperts, B. Mennucci, H. P. Hratchian, 
 J. V. Ortiz, A. F. Izmaylov, J. L. Sonnenberg, D. Williams-Young, 
 F. Ding, F. Lipparini, F. Egidi, J. Goings, B. Peng, A. Petrone, 
 T. Henderson, D. Ranasinghe, V. G. Zakrzewski, J. Gao, N. Rega, 
 G. Zheng, W. Liang, M. Hada, M. Ehara, K. Toyota, R. Fukuda, 
 J. Hasegawa, M. Ishida, T. Nakajima, Y. Honda, O. Kitao, H. Nakai, 
 T. Vreven, K. Throssell, J. A. Montgomery, Jr., J. E. Peralta, 
 F. Ogliaro, M. J. Bearpark, J. J. Heyd, E. N. Brothers, K. N. Kudin, 
 V. N. Staroverov, T. A. Keith, R. Kobayashi, J. Normand, 
 K. Raghavachari, A. P. Rendell, J. C. Burant, S. S. Iyengar, 
 J. Tomasi, M. Cossi, J. M. Millam, M. Klene, C. Adamo, R. Cammi, 
 J. W. Ochterski, R. L. Martin, K. Morokuma, O. Farkas, 
 J. B. Foresman, and D. J. Fox, Gaussian, Inc., Wallingford CT, 2019.
 
 ******************************************
 Gaussian 16:  ES64L-G16RevC.02  7-Dec-2021
                22-Jan-2023 
 ******************************************
 %NProcShared=2
 Will use up to    2 processors via shared memory.
 %mem=110gb
 %chk=/scratch1/svicchi/G09-56282.pbs02/00-opt/FeFeFe-AO-0xH2O-opt.chk
 ----------------------------------------------------------------------
 #p opt=(cartesian,maxcycle=500) gen um06l int=grid=ultrafine scf=(xqc,
 intrep,maxconventionalcycle=150) pop=(hirshfeld) nosymm
 ----------------------------------------------------------------------
 1/6=500,10=7,18=10,26=4,38=1/1,3;
 2/12=2,15=1,17=6,18=5,29=2,40=1/2;
 3/5=7,11=2,25=1,30=1,71=1,74=-53,75=-5,116=2/1,2,3;
 4//1;
 5/5=2,8=3,13=1,17=20,38=5,85=150/2,8;
 6/7=2,8=2,9=2,10=2,28=1,79=1/1;
 7/7=1,29=1,30=1/1,2,3,16;
 1/6=500,10=7,18=10,26=4/3(2);
 2/15=1,29=1/2;
 99/12=1/99;
 2/15=1,29=1/2;
 3/5=7,6=1,11=2,25=1,30=1,71=1,74=-53,75=-5,82=7,116=2/1,2,3;
 4/5=5,16=3,69=1/1;
 5/5=2,8=3,13=1,17=20,38=5,85=150/2,8;
 7/7=1,30=1/1,2,3,16;
 1/6=500,18=10,26=4/3(-5);
 2/15=1,29=1/2;
 6/7=2,8=2,9=2,10=2,19=2,28=1,79=1/1;
 99/9=1,12=1/99;
 Leave Link    1 at Sun Jan 22 09:48:18 2023, MaxMem= 14763950080 cpu:               0.0 elap:               0.2
 (Enter /software/commercial/gaussian/g16/AVX2/g16/l101.exe)
 ---------------
 FeFeFe-AO-0xH2O
 ---------------
 Symbolic Z-matrix:
 Charge =  0 Multiplicity =15
 O                     0.98882   2.53657   1.36394 
 O                    -1.18972   1.95839   1.45687 
 C                    -0.18258   2.61883   1.80321 
 H                    -0.34623   3.3657    2.59858 
 O                     2.32007  -1.7519   -1.44414 
 O                     2.89479   0.42796  -1.48056 
 C                     2.96476  -0.76203  -1.86682 
 H                     3.67794  -0.96486  -2.68325 
 O                    -1.94374  -0.8402    1.4705 
 O                     2.95722   0.47135   1.34731 
 O                     2.3911   -1.71097   1.36396 
 C                     3.04857  -0.71324   1.74599 
 H                     3.79647  -0.90212   2.53422 
 O                    -1.24692   1.94534  -1.42163 
 O                     0.93761   2.50666  -1.46451 
 C                    -0.25674   2.59021  -1.83785 
 H                    -0.45961   3.32285  -2.63738 
 Fe                   -1.38173   0.52407   0.02856 
 O                    -2.01046  -0.84843  -1.37543 
 Fe                    0.90879  -1.85886  -0.00246 
 O                    -0.45441  -2.48299  -1.36493 
 O                    -0.3792   -2.46649   1.43584 
 Fe                    1.74969   1.30128  -0.05312 
 O                     0.41856  -0.04163  -0.00776 
 C                    -1.51102  -1.93281  -1.75638 
 H                    -2.07045  -2.47409  -2.53883 
 C                    -1.42344  -1.91289   1.85571 
 H                    -1.94852  -2.43966   2.67114 
 N                    -4.42018   0.05268   0.09632 
 N                    -5.1186   -0.82499   0.11309 
 O                    -3.69705   0.99095   0.07897 
 
 ITRead=  0  0  0  0  0  0  0  0  0  0  0  0  0  0  0  0  0  0  0  0
 ITRead=  0  0  0  0  0  0  0  0  0  0  0
 MicOpt= -1 -1 -1 -1 -1 -1 -1 -1 -1 -1 -1 -1 -1 -1 -1 -1 -1 -1 -1 -1
 MicOpt= -1 -1 -1 -1 -1 -1 -1 -1 -1 -1 -1
 NAtoms=     31 NQM=       31 NQMF=       0 NMMI=      0 NMMIF=      0
                NMic=       0 NMicF=      0.
                    Isotopes and Nuclear Properties:
 (Nuclear quadrupole moments (NQMom) in fm**2, nuclear magnetic moments (NMagM)
  in nuclear magnetons)

  Atom         1           2           3           4           5           6           7           8           9          10
 IAtWgt=          16          16          12           1          16          16          12           1          16          16
 AtmWgt=  15.9949146  15.9949146  12.0000000   1.0078250  15.9949146  15.9949146  12.0000000   1.0078250  15.9949146  15.9949146
 NucSpn=           0           0           0           1           0           0           0           1           0           0
 AtZEff=  -0.0000000  -0.0000000  -0.0000000  -0.0000000  -0.0000000  -0.0000000  -0.0000000  -0.0000000  -0.0000000  -0.0000000
 NQMom=    0.0000000   0.0000000   0.0000000   0.0000000   0.0000000   0.0000000   0.0000000   0.0000000   0.0000000   0.0000000
 NMagM=    0.0000000   0.0000000   0.0000000   2.7928460   0.0000000   0.0000000   0.0000000   2.7928460   0.0000000   0.0000000
 AtZNuc=   8.0000000   8.0000000   6.0000000   1.0000000   8.0000000   8.0000000   6.0000000   1.0000000   8.0000000   8.0000000

  Atom        11          12          13          14          15          16          17          18          19          20
 IAtWgt=          16          12           1          16          16          12           1          56          16          56
 AtmWgt=  15.9949146  12.0000000   1.0078250  15.9949146  15.9949146  12.0000000   1.0078250  55.9349393  15.9949146  55.9349393
 NucSpn=           0           0           1           0           0           0           1           0           0           0
 AtZEff=  -0.0000000  -0.0000000  -0.0000000  -0.0000000  -0.0000000  -0.0000000  -0.0000000  -0.0000000  -0.0000000  -0.0000000
 NQMom=    0.0000000   0.0000000   0.0000000   0.0000000   0.0000000   0.0000000   0.0000000   0.0000000   0.0000000   0.0000000
 NMagM=    0.0000000   0.0000000   2.7928460   0.0000000   0.0000000   0.0000000   2.7928460   0.0000000   0.0000000   0.0000000
 AtZNuc=   8.0000000   6.0000000   1.0000000   8.0000000   8.0000000   6.0000000   1.0000000  26.0000000   8.0000000  26.0000000

  Atom        21          22          23          24          25          26          27          28          29          30
 IAtWgt=          16          16          56          16          12           1          12           1          14          14
 AtmWgt=  15.9949146  15.9949146  55.9349393  15.9949146  12.0000000   1.0078250  12.0000000   1.0078250  14.0030740  14.0030740
 NucSpn=           0           0           0           0           0           1           0           1           2           2
 AtZEff=  -0.0000000  -0.0000000  -0.0000000  -0.0000000  -0.0000000  -0.0000000  -0.0000000  -0.0000000  -0.0000000  -0.0000000
 NQMom=    0.0000000   0.0000000   0.0000000   0.0000000   0.0000000   0.0000000   0.0000000   0.0000000   2.0440000   2.0440000
 NMagM=    0.0000000   0.0000000   0.0000000   0.0000000   0.0000000   2.7928460   0.0000000   2.7928460   0.4037610   0.4037610
 AtZNuc=   8.0000000   8.0000000  26.0000000   8.0000000   6.0000000   1.0000000   6.0000000   1.0000000   7.0000000   7.0000000

  Atom        31
 IAtWgt=          16
 AtmWgt=  15.9949146
 NucSpn=           0
 AtZEff=  -0.0000000
 NQMom=    0.0000000
 NMagM=    0.0000000
 AtZNuc=   8.0000000
 Leave Link  101 at Sun Jan 22 09:48:18 2023, MaxMem= 14763950080 cpu:               0.1 elap:               0.2
 (Enter /software/commercial/gaussian/g16/AVX2/g16/l103.exe)

 GradGradGradGradGradGradGradGradGradGradGradGradGradGradGradGradGradGrad
 Berny optimization.
 Initialization pass.
 No Z-matrix variables, so optimization will use Cartesian coordinates.
 Trust Radius=3.00D-01 FncErr=1.00D-07 GrdErr=1.00D-06 EigMax=2.50D+02 EigMin=1.00D-04
 Number of steps in this run=    186 maximum allowed number of steps=    186.
 GradGradGradGradGradGradGradGradGradGradGradGradGradGradGradGradGradGrad

 Leave Link  103 at Sun Jan 22 09:48:19 2023, MaxMem= 14763950080 cpu:               0.1 elap:               0.1
 (Enter /software/commercial/gaussian/g16/AVX2/g16/l202.exe)
 ---------------------------------------------------------------------------------------------------
                            Z-MATRIX (ANGSTROMS AND DEGREES)
   CD    Cent   Atom    N1       Length/X        N2       Alpha/Y        N3        Beta/Z          J
 ---------------------------------------------------------------------------------------------------
      1      1  O        0   0.988815          2.536571          1.363936
      2      2  O        0  -1.189723          1.958390          1.456867
      3      3  C        0  -0.182584          2.618826          1.803214
      4      4  H        0  -0.346229          3.365696          2.598578
      5      5  O        0   2.320070         -1.751903         -1.444144
      6      6  O        0   2.894788          0.427962         -1.480555
      7      7  C        0   2.964756         -0.762032         -1.866824
      8      8  H        0   3.677945         -0.964859         -2.683246
      9      9  O        0  -1.943739         -0.840200          1.470495
     10     10  O        0   2.957223          0.471349          1.347311
     11     11  O        0   2.391101         -1.710973          1.363957
     12     12  C        0   3.048569         -0.713242          1.745985
     13     13  H        0   3.796469         -0.902122          2.534224
     14     14  O        0  -1.246922          1.945338         -1.421628
     15     15  O        0   0.937605          2.506657         -1.464506
     16     16  C        0  -0.256742          2.590209         -1.837852
     17     17  H        0  -0.459610          3.322853         -2.637384
     18     18  Fe       0  -1.381732          0.524067          0.028559
     19     19  O        0  -2.010456         -0.848425         -1.375432
     20     20  Fe       0   0.908791         -1.858859         -0.002460
     21     21  O        0  -0.454412         -2.482988         -1.364934
     22     22  O        0  -0.379199         -2.466493          1.435844
     23     23  Fe       0   1.749689          1.301275         -0.053125
     24     24  O        0   0.418562         -0.041626         -0.007765
     25     25  C        0  -1.511022         -1.932813         -1.756382
     26     26  H        0  -2.070451         -2.474089         -2.538826
     27     27  C        0  -1.423439         -1.912888          1.855711
     28     28  H        0  -1.948519         -2.439656          2.671138
     29     29  N        0  -4.420177          0.052681          0.096325
     30     30  N        0  -5.118598         -0.824990          0.113089
     31     31  O        0  -3.697052          0.990948          0.078973
 ---------------------------------------------------------------------------------------------------
                         Z-Matrix orientation:                         
 ---------------------------------------------------------------------
 Center     Atomic      Atomic             Coordinates (Angstroms)
 Number     Number       Type             X           Y           Z
 ---------------------------------------------------------------------
      1          8           0        0.988815    2.536571    1.363936
      2          8           0       -1.189723    1.958390    1.456867
      3          6           0       -0.182584    2.618826    1.803214
      4          1           0       -0.346229    3.365696    2.598578
      5          8           0        2.320070   -1.751903   -1.444144
      6          8           0        2.894788    0.427962   -1.480555
      7          6           0        2.964756   -0.762032   -1.866824
      8          1           0        3.677945   -0.964859   -2.683246
      9          8           0       -1.943739   -0.840200    1.470495
     10          8           0        2.957223    0.471349    1.347311
     11          8           0        2.391101   -1.710973    1.363957
     12          6           0        3.048569   -0.713242    1.745985
     13          1           0        3.796469   -0.902122    2.534224
     14          8           0       -1.246922    1.945338   -1.421628
     15          8           0        0.937605    2.506657   -1.464506
     16          6           0       -0.256742    2.590209   -1.837852
     17          1           0       -0.459610    3.322853   -2.637384
     18         26           0       -1.381732    0.524067    0.028559
     19          8           0       -2.010456   -0.848425   -1.375432
     20         26           0        0.908791   -1.858859   -0.002460
     21          8           0       -0.454412   -2.482988   -1.364934
     22          8           0       -0.379199   -2.466493    1.435844
     23         26           0        1.749689    1.301275   -0.053125
     24          8           0        0.418562   -0.041626   -0.007765
     25          6           0       -1.511022   -1.932813   -1.756382
     26          1           0       -2.070451   -2.474089   -2.538826
     27          6           0       -1.423439   -1.912888    1.855711
     28          1           0       -1.948519   -2.439656    2.671138
     29          7           0       -4.420177    0.052681    0.096325
     30          7           0       -5.118598   -0.824990    0.113089
     31          8           0       -3.697052    0.990948    0.078973
 ---------------------------------------------------------------------
                    Distance matrix (angstroms):
                    1          2          3          4          5
     1  O    0.000000
     2  O    2.255872   0.000000
     3  C    1.253757   1.253181   0.000000
     4  H    1.998532   1.998874   1.103267   0.000000
     5  O    5.296090   5.873737   5.992653   7.045749   0.000000
     6  O    4.021206   5.258697   5.005322   5.981121   2.254648
     7  C    5.022244   5.975560   5.899588   6.923914   1.254640
     8  H    5.989250   7.027099   6.919162   7.927506   1.999659
     9  O    4.473679   2.898418   3.895796   4.638337   5.244654
    10  O    2.853077   4.406865   3.831174   4.566805   3.625057
    11  O    4.473034   5.127880   5.056081   5.898290   2.809298
    12  C    3.866501   5.018399   4.641800   5.374877   3.433141
    13  H    4.590981   5.848533   5.363238   5.948140   4.327735
    14  O    3.620421   2.879093   3.462082   4.357835   5.137463
    15  O    2.829064   3.655208   3.456212   4.346819   4.477383
    16  C    3.435948   3.482072   3.641934   4.504587   5.064474
    17  H    4.327441   4.376953   4.504588   5.237365   5.907926
    18  Fe   3.384213   2.033276   2.995893   3.968894   4.588272
    19  O    5.287529   4.071085   5.046458   6.026709   4.424302
    20  Fe   4.603612   4.593994   4.949871   5.969627   2.020297
    21  O    5.892844   5.313105   6.011619   7.065992   2.870281
    22  O    5.187223   4.498553   5.102362   5.947055   4.011362
    23  Fe   2.028040   3.369276   2.985903   3.960585   3.403258
    24  O    2.975543   2.954961   3.273993   4.357497   2.933251
    25  C    5.996746   5.056645   5.928988   6.956768   3.848050
    26  H    7.049636   6.032256   6.953786   7.966740   4.582200
    27  C    5.085126   3.898781   4.698821   5.438353   4.992877
    28  H    5.924487   4.625260   5.427713   6.022849   5.969038
    29  N    6.085536   3.989816   5.239825   5.816734   7.145663
    30  N    7.082740   4.998900   6.251450   6.820191   7.656235
    31  O    5.098768   3.020138   4.239632   4.818283   6.785933
                    6          7          8          9         10
     6  O    0.000000
     7  C    1.253070   0.000000
     8  H    1.999937   1.102870   0.000000
     9  O    5.807605   5.936087   6.990882   0.000000
    10  O    2.828889   3.442666   4.339070   5.074915   0.000000
    11  O    3.594439   3.415775   4.311903   4.422718   2.254618
    12  C    3.425866   3.614111   4.480794   5.001515   1.253212
    13  H    4.324419   4.481137   5.219193   5.838265   1.999880
    14  O    4.411311   5.026558   5.857921   4.075432   5.245427
    15  O    2.855135   3.867238   4.587615   5.302625   4.015925
    16  C    3.838634   4.649345   5.369819   5.055573   4.996439
    17  H    4.579371   5.385753   5.958686   6.033931   5.973577
    18  Fe   4.536000   4.913094   5.930525   2.063069   4.535242
    19  O    5.069678   5.000166   5.837965   2.846721   5.816612
    20  Fe   3.370237   2.984271   3.956522   3.368114   3.383463
    21  O    4.438935   3.860608   4.595546   3.599515   5.265325
    22  O    5.253784   4.999484   5.973460   2.256949   4.446400
    23  Fe   2.027680   3.003853   3.971281   4.533072   2.026854
    24  O    2.919130   3.233912   4.316727   2.898869   2.923042
    25  C    5.006046   4.627690   5.359234   3.434208   5.947951
    26  H    5.847686   5.360601   5.944972   4.331317   7.003940
    27  C    5.937789   5.868390   6.893839   1.252903   5.013309
    28  H    6.994099   6.895491   7.905793   1.999957   5.856004
    29  N    7.492403   7.684722   8.622121   2.969566   7.494417
    30  N    8.265830   8.322538   9.231372   3.452899   8.271801
    31  O    6.797164   7.158126   8.114531   2.891979   6.793971
                   11         12         13         14         15
    11  O    0.000000
    12  C    1.254463   0.000000
    13  H    1.999706   1.102883   0.000000
    14  O    5.862022   5.962639   7.013743   0.000000
    15  O    5.282164   5.013100   5.981866   2.255899   0.000000
    16  C    5.980202   5.889122   6.909410   1.252820   1.254127
    17  H    7.033967   6.914573   7.918975   1.998868   1.998507
    18  Fe   4.583990   4.909996   5.926731   2.035001   3.396945
    19  O    5.255658   5.946028   7.000619   2.896590   4.467167
    20  Fe   2.021437   2.991345   3.960908   4.597070   4.603927
    21  O    4.017437   5.008064   5.981017   4.499040   5.181138
    22  O    2.872375   3.862599   4.592374   5.327508   5.905780
    23  Fe   3.390157   2.997026   3.967195   3.356680   2.025938
    24  O    2.925619   3.231662   4.314211   2.953113   2.980814
    25  C    5.001229   5.877398   6.902252   3.901520   5.078372
    26  H    5.976580   6.903952   7.913764   4.632242   5.916959
    27  C    3.851403   4.631420   5.359988   5.065375   6.010887
    28  H    4.590425   5.367244   5.948752   6.039135   7.063943
    29  N    7.149186   7.687014   8.623704   3.994481   6.096230
    30  N    7.664543   8.329553   9.238304   5.001994   7.089872
    31  O    6.783595   7.154481   8.109552   3.027508   5.114661
                   16         17         18         19         20
    16  C    0.000000
    17  H    1.103257   0.000000
    18  Fe   3.003005   3.973760   0.000000
    19  O    3.887615   4.625712   2.061606   0.000000
    20  Fe   4.951902   5.972059   3.305419   3.380537   0.000000
    21  O    5.099024   5.943648   3.441530   2.256807   2.025882
    22  O    6.025140   7.079137   3.453835   3.630759   2.024069
    23  Fe   2.978652   3.955525   3.227465   4.528620   3.270493
    24  O    3.275944   4.359565   1.887430   2.901994   1.882202
    25  C    4.694420   5.431727   3.039571   1.253177   2.989517
    26  H    5.424759   6.017396   4.006836   1.999966   3.960751
    27  C    5.939821   6.966338   3.046141   3.452239   2.982452
    28  H    6.963666   7.975197   4.011000   4.348630   3.955967
    29  N    5.245406   5.818357   3.075539   2.963919   5.662300
    30  N    6.253591   6.817322   3.973822   3.446272   6.116507
    31  O    4.250599   4.826739   2.362462   2.888459   5.416810
                   21         22         23         24         25
    21  O    0.000000
    22  O    2.801837   0.000000
    23  Fe   4.571604   4.576601   0.000000
    24  O    2.926472   2.932645   1.891386   0.000000
    25  C    1.253933   3.428724   4.898229   3.218314   0.000000
    26  H    1.997419   4.319536   5.918240   4.303293   1.103702
    27  C    3.411244   1.254274   4.903392   3.219804   3.613210
    28  H    4.303965   1.997358   5.923928   4.304665   4.477860
    29  N    4.928710   4.946721   6.296711   4.840777   3.979685
    30  N    5.166057   5.187111   7.191801   5.593605   4.211508
    31  O    4.966671   4.980276   5.457174   4.244057   4.086030
                   26         27         28         29         30
    26  H    0.000000
    27  C    4.477223   0.000000
    28  H    5.211504   1.103682   0.000000
    29  N    4.341635   3.992410   4.353217   0.000000
    30  N    4.363872   4.227819   4.381799   1.121775   0.000000
    31  O    4.637368   4.093700   4.641738   1.184718   2.306423
                   31
    31  O    0.000000
 Symmetry turned off by external request.
 Stoichiometry    C6H6Fe3N2O14(15)
 Framework group  C1[X(C6H6Fe3N2O14)]
 Deg. of freedom    87
 Full point group                 C1      NOp   1
 Rotational constants (GHZ):           0.2606923           0.1795079           0.1473873
 Leave Link  202 at Sun Jan 22 09:48:19 2023, MaxMem= 14763950080 cpu:               0.0 elap:               0.1
 (Enter /software/commercial/gaussian/g16/AVX2/g16/l301.exe)
 General basis read from cards:  (5D, 7F)
 Centers:       4      8     13     17     26     28
 S 3 1.00
     Exponent=  3.4061341000D+01 Coefficients=  6.0251978000D-03
     Exponent=  5.1235746000D+00 Coefficients=  4.5021094000D-02
     Exponent=  1.1646626000D+00 Coefficients=  2.0189726000D-01
 S 1 1.00
     Exponent=  3.2723041000D-01 Coefficients=  1.0000000000D+00
 S 1 1.00
     Exponent=  1.0307241000D-01 Coefficients=  1.0000000000D+00
 P 1 1.00
     Exponent=  8.0000000000D-01 Coefficients=  1.0000000000D+00
 ****
 Centers:       1      2      5      6      9     10     11     14     15     19
 Centers:      21     22     24     31
 S 6 1.00
     Exponent=  2.7032382631D+04 Coefficients=  2.1726302465D-04
     Exponent=  4.0523871392D+03 Coefficients=  1.6838662199D-03
     Exponent=  9.2232722710D+02 Coefficients=  8.7395616265D-03
     Exponent=  2.6124070989D+02 Coefficients=  3.5239968808D-02
     Exponent=  8.5354641351D+01 Coefficients=  1.1153519115D-01
     Exponent=  3.1035035245D+01 Coefficients=  2.5588953961D-01
 S 2 1.00
     Exponent=  1.2260860728D+01 Coefficients=  3.9768730901D-01
     Exponent=  4.9987076005D+00 Coefficients=  2.4627849430D-01
 S 1 1.00
     Exponent=  1.1703108158D+00 Coefficients=  1.0000000000D+00
 S 1 1.00
     Exponent=  4.6474740994D-01 Coefficients=  1.0000000000D+00
 S 1 1.00
     Exponent=  1.8504536357D-01 Coefficients=  1.0000000000D+00
 P 4 1.00
     Exponent=  6.3274954801D+01 Coefficients=  6.0685103418D-03
     Exponent=  1.4627049379D+01 Coefficients=  4.1912575824D-02
     Exponent=  4.4501223456D+00 Coefficients=  1.6153841088D-01
     Exponent=  1.5275799647D+00 Coefficients=  3.5706951311D-01
 P 1 1.00
     Exponent=  5.2935117943D-01 Coefficients=  4.4794207502D-01
 P 1 1.00
     Exponent=  1.7478421270D-01 Coefficients=  2.4446069663D-01
 D 1 1.00
     Exponent=  2.3140000000D+00 Coefficients=  1.0000000000D+00
 D 1 1.00
     Exponent=  6.4500000000D-01 Coefficients=  1.0000000000D+00
 F 1 1.00
     Exponent=  1.4280000000D+00 Coefficients=  1.0000000000D+00
 ****
 Centers:       3      7     12     16     25     27
 S 6 1.00
     Exponent=  1.3575349682D+04 Coefficients=  2.2245814352D-04
     Exponent=  2.0352333680D+03 Coefficients=  1.7232738252D-03
     Exponent=  4.6322562359D+02 Coefficients=  8.9255715314D-03
     Exponent=  1.3120019598D+02 Coefficients=  3.5727984502D-02
     Exponent=  4.2853015891D+01 Coefficients=  1.1076259931D-01
     Exponent=  1.5584185766D+01 Coefficients=  2.4295627626D-01
 S 2 1.00
     Exponent=  6.2067138508D+00 Coefficients=  4.1440263448D-01
     Exponent=  2.5764896527D+00 Coefficients=  2.3744968655D-01
 S 1 1.00
     Exponent=  5.7696339419D-01 Coefficients=  1.0000000000D+00
 S 1 1.00
     Exponent=  2.2972831358D-01 Coefficients=  1.0000000000D+00
 S 1 1.00
     Exponent=  9.5164440028D-02 Coefficients=  1.0000000000D+00
 P 4 1.00
     Exponent=  3.4697232244D+01 Coefficients=  5.3333657805D-03
     Exponent=  7.9582622826D+00 Coefficients=  3.5864109092D-02
     Exponent=  2.3780826883D+00 Coefficients=  1.4215873329D-01
     Exponent=  8.1433208183D-01 Coefficients=  3.4270471845D-01
 P 1 1.00
     Exponent=  2.8887547253D-01 Coefficients=  4.6445822433D-01
 P 1 1.00
     Exponent=  1.0056823671D-01 Coefficients=  2.4955789874D-01
 D 1 1.00
     Exponent=  1.0970000000D+00 Coefficients=  1.0000000000D+00
 D 1 1.00
     Exponent=  3.1800000000D-01 Coefficients=  1.0000000000D+00
 F 1 1.00
     Exponent=  7.6100000000D-01 Coefficients=  1.0000000000D+00
 ****
 Centers:      18     20     23
 S 8 1.00
     Exponent=  3.0078484637D+05 Coefficients=  2.2806273096D-04
     Exponent=  4.5088970557D+04 Coefficients=  1.7681788761D-03
     Exponent=  1.0262516317D+04 Coefficients=  9.1927083490D-03
     Exponent=  2.9052897293D+03 Coefficients=  3.7355495807D-02
     Exponent=  9.4611487137D+02 Coefficients=  1.2151108426D-01
     Exponent=  3.3987832894D+02 Coefficients=  2.8818881468D-01
     Exponent=  1.3194425588D+02 Coefficients=  4.1126612677D-01
     Exponent=  5.2111494077D+01 Coefficients=  2.1518583573D-01
 S 4 1.00
     Exponent=  3.2948839267D+02 Coefficients= -2.4745216477D-02
     Exponent=  1.0192332739D+02 Coefficients= -1.1683089050D-01
     Exponent=  1.6240462745D+01 Coefficients=  5.5293621136D-01
     Exponent=  6.8840675801D+00 Coefficients=  5.3601640182D-01
 S 2 1.00
     Exponent=  1.0470693782D+01 Coefficients= -2.2912708577D-01
     Exponent=  1.7360039648D+00 Coefficients=  7.1159319984D-01
 S 1 1.00
     Exponent=  7.2577288979D-01 Coefficients=  1.0000000000D+00
 S 1 1.00
     Exponent=  1.1595528203D-01 Coefficients=  1.0000000000D+00
 S 1 1.00
     Exponent=  4.1968227746D-02 Coefficients=  1.0000000000D+00
 P 6 1.00
     Exponent=  1.5853959970D+03 Coefficients=  2.3793960179D-03
     Exponent=  3.7538006499D+02 Coefficients=  1.9253154755D-02
     Exponent=  1.2031816501D+02 Coefficients=  9.0021836536D-02
     Exponent=  4.4788749031D+01 Coefficients=  2.5798172356D-01
     Exponent=  1.7829278584D+01 Coefficients=  4.1492649744D-01
     Exponent=  7.2247153786D+00 Coefficients=  2.4207474784D-01
 P 3 1.00
     Exponent=  2.8143219756D+01 Coefficients= -2.9041755152D-02
     Exponent=  3.8743241412D+00 Coefficients=  5.5312260343D-01
     Exponent=  1.5410752281D+00 Coefficients=  9.6771136842D-01
 P 1 1.00
     Exponent=  5.8285615250D-01 Coefficients=  1.0000000000D+00
 P 1 1.00
     Exponent=  1.3491500000D-01 Coefficients=  1.0000000000D+00
 D 4 1.00
     Exponent=  6.1996675034D+01 Coefficients=  1.1971972255D-02
     Exponent=  1.7873732552D+01 Coefficients=  7.3210135410D-02
     Exponent=  6.2744782934D+00 Coefficients=  2.3103094314D-01
     Exponent=  2.3552337175D+00 Coefficients=  3.9910706494D-01
 D 1 1.00
     Exponent=  8.5432239901D-01 Coefficients=  4.1391589765D-01
 D 1 1.00
     Exponent=  2.7869254413D-01 Coefficients=  2.1909269782D-01
 D 1 1.00
     Exponent=  9.1000000000D-02 Coefficients=  1.0000000000D+00
 F 1 1.00
     Exponent=  1.5980000000D+00 Coefficients=  1.0000000000D+00
 ****
 Centers:      29     30
 S 6 1.00
     Exponent=  1.9730800647D+04 Coefficients=  2.1887984991D-04
     Exponent=  2.9578958745D+03 Coefficients=  1.6960708803D-03
     Exponent=  6.7322133595D+02 Coefficients=  8.7954603538D-03
     Exponent=  1.9068249494D+02 Coefficients=  3.5359382605D-02
     Exponent=  6.2295441898D+01 Coefficients=  1.1095789217D-01
     Exponent=  2.2654161182D+01 Coefficients=  2.4982972552D-01
 S 2 1.00
     Exponent=  8.9791477428D+00 Coefficients=  4.0623896148D-01
     Exponent=  3.6863002370D+00 Coefficients=  2.4338217176D-01
 S 1 1.00
     Exponent=  8.4660076805D-01 Coefficients=  1.0000000000D+00
 S 1 1.00
     Exponent=  3.3647133771D-01 Coefficients=  1.0000000000D+00
 S 1 1.00
     Exponent=  1.3647653675D-01 Coefficients=  1.0000000000D+00
 P 4 1.00
     Exponent=  4.9200380510D+01 Coefficients=  5.5552416751D-03
     Exponent=  1.1346790537D+01 Coefficients=  3.8052379723D-02
     Exponent=  3.4273972411D+00 Coefficients=  1.4953671029D-01
     Exponent=  1.1785525134D+00 Coefficients=  3.4949305230D-01
 P 1 1.00
     Exponent=  4.1642204972D-01 Coefficients=  4.5843153697D-01
 P 1 1.00
     Exponent=  1.4260826011D-01 Coefficients=  2.4428771672D-01
 D 1 1.00
     Exponent=  1.6540000000D+00 Coefficients=  1.0000000000D+00
 D 1 1.00
     Exponent=  4.6900000000D-01 Coefficients=  1.0000000000D+00
 F 1 1.00
     Exponent=  1.0930000000D+00 Coefficients=  1.0000000000D+00
 ****
 Ernie: Thresh=  0.10000D-02 Tol=  0.10000D-05 Strict=F.
   853 basis functions,  1476 primitive gaussians,   984 cartesian basis functions
   130 alpha electrons      116 beta electrons
       nuclear repulsion energy      4446.6977668143 Hartrees.
 IExCor= 4134 DFT=T Ex+Corr=M06L ExCW=0 ScaHFX=  0.000000
 ScaDFX=  1.000000  1.000000  1.000000  1.000000 ScalE2=  1.000000  1.000000
 IRadAn=      5 IRanWt=     -1 IRanGd=            0 ICorTp=0 IEmpDi=  4
 NAtoms=   31 NActive=   31 NUniq=   31 SFac= 1.00D+00 NAtFMM=   60 NAOKFM=F Big=F
 Integral buffers will be    131072 words long.
 Raffenetti 2 integral format.
 Two-electron integral symmetry is turned off.
 Leave Link  301 at Sun Jan 22 09:48:19 2023, MaxMem= 14763950080 cpu:               0.1 elap:               0.1
 (Enter /software/commercial/gaussian/g16/AVX2/g16/l302.exe)
 NPDir=0 NMtPBC=     1 NCelOv=     1 NCel=       1 NClECP=     1 NCelD=      1
         NCelK=      1 NCelE2=     1 NClLst=     1 CellRange=     0.0.
 One-electron integrals computed using PRISM.
 NBasis=   853 RedAO= T EigKep=  1.11D-04  NBF=   853
 NBsUse=   853 1.00D-06 EigRej= -1.00D+00 NBFU=   853
 Precomputing XC quadrature grid using
 IXCGrd= 4 IRadAn=           5 IRanWt=          -1 IRanGd=           0 AccXCQ= 0.00D+00.
 Generated NRdTot=       0 NPtTot=           0 NUsed=           0 NTot=          32
 NSgBfM=   968   967   967   968   968 MxSgAt=    31 MxSgA2=    31.
 Leave Link  302 at Sun Jan 22 09:48:22 2023, MaxMem= 14763950080 cpu:               2.3 elap:               1.5
 (Enter /software/commercial/gaussian/g16/AVX2/g16/l303.exe)
 DipDrv:  MaxL=1.
 Leave Link  303 at Sun Jan 22 09:48:23 2023, MaxMem= 14763950080 cpu:               0.2 elap:               0.3
 (Enter /software/commercial/gaussian/g16/AVX2/g16/l401.exe)
 ExpMin= 4.20D-02 ExpMax= 3.01D+05 ExpMxC= 2.91D+03 IAcc=3 IRadAn=         5 AccDes= 0.00D+00
 Harris functional with IExCor= 1009 and IRadAn=       5 diagonalized for initial guess.
 HarFok:  IExCor= 1009 AccDes= 0.00D+00 IRadAn=         5 IDoV= 1 UseB2=F ITyADJ=14
 ICtDFT=  3500011 ScaDFX=  1.000000  1.000000  1.000000  1.000000
 FoFCou: FMM=F IPFlag=           0 FMFlag=      100000 FMFlg1=           0
         NFxFlg=           0 DoJE=T BraDBF=F KetDBF=T FulRan=T
         wScrn=  0.000000 ICntrl=       500 IOpCl=  0 I1Cent=   200000004 NGrid=           0
         NMat0=    1 NMatS0=      1 NMatT0=    0 NMatD0=    1 NMtDS0=    0 NMtDT0=    0
 Symmetry not used in FoFCou.
 Harris En= -5184.52234985177    
 JPrj=0 DoOrth=F DoCkMO=F.
 Initial guess <Sx>= 0.0000 <Sy>= 0.0000 <Sz>= 7.0000 <S**2>=56.0000 S= 7.0000
 Leave Link  401 at Sun Jan 22 09:48:37 2023, MaxMem= 14763950080 cpu:              27.2 elap:              14.0
 (Enter /software/commercial/gaussian/g16/AVX2/g16/l502.exe)
 Two-electron integral symmetry not used.
 UHF open shell SCF:
 Using DIIS extrapolation, IDIIS=  1040.
 NGot= 14763950080 LenX= 14762000842 LenY= 14761031602
 Requested convergence on RMS density matrix=1.00D-08 within 150 cycles.
 Requested convergence on MAX density matrix=1.00D-06.
 Requested convergence on             energy=1.00D-06.
 No special actions if energy rises.
 Fock matrices will be formed incrementally for  20 cycles.

 Cycle   1  Pass 1  IDiag  1:
 FoFJK:  IHMeth= 1 ICntrl=     500 DoSepK=F KAlg= 0 I1Cent=           0 FoldK=F
 IRaf= 780000000 NMat=       1 IRICut=       1 DoRegI=T DoRafI=F ISym2E= 0 IDoP0=0 IntGTp=1.
 FoFCou: FMM=F IPFlag=           0 FMFlag=      100000 FMFlg1=           0
         NFxFlg=           0 DoJE=T BraDBF=F KetDBF=F FulRan=T
         wScrn=  0.000000 ICntrl=       500 IOpCl=  0 I1Cent=           0 NGrid=           0
         NMat0=    1 NMatS0=      1 NMatT0=    0 NMatD0=    1 NMtDS0=    0 NMtDT0=    0
 Symmetry not used in FoFCou.
 E= -5185.76115360310    
 DIIS: error= 5.37D-02 at cycle   1 NSaved=   1.
 NSaved= 1 IEnMin= 1 EnMin= -5185.76115360310     IErMin= 1 ErrMin= 5.37D-02
 ErrMax= 5.37D-02  0.00D+00 EMaxC= 1.00D-01 BMatC= 8.62D+00 BMatP= 8.62D+00
 IDIUse=3 WtCom= 4.63D-01 WtEn= 5.37D-01
 Coeff-Com:  0.100D+01
 Coeff-En:   0.100D+01
 Coeff:      0.100D+01
 Gap=     0.480 Goal=   None    Shift=    0.000
 Gap=     0.000 Goal=   None    Shift=    0.000
 GapD=    0.000 DampG=0.250 DampE=0.250 DampFc=0.1250 IDamp=-1.
 Damping current iteration by 1.25D-01
 RMSDP=3.32D-03 MaxDP=4.87D-01              OVMax= 8.96D-01

 Cycle   2  Pass 1  IDiag  1:
 RMSU=  4.14D-04    CP:  9.98D-01
 E= -5186.00398768053     Delta-E=       -0.242834077437 Rises=F Damp=T
 DIIS: error= 2.20D-02 at cycle   2 NSaved=   2.
 NSaved= 2 IEnMin= 2 EnMin= -5186.00398768053     IErMin= 2 ErrMin= 2.20D-02
 ErrMax= 2.20D-02  0.00D+00 EMaxC= 1.00D-01 BMatC= 2.20D+00 BMatP= 8.62D+00
 IDIUse=3 WtCom= 7.80D-01 WtEn= 2.20D-01
 Coeff-Com: -0.374D+00 0.137D+01
 Coeff-En:   0.250D+00 0.750D+00
 Coeff:     -0.236D+00 0.124D+01
 Gap=     0.064 Goal=   None    Shift=    0.000
 Gap=     0.022 Goal=   None    Shift=    0.000
 RMSDP=2.15D-03 MaxDP=1.80D-01 DE=-2.43D-01 OVMax= 9.84D-01

 Cycle   3  Pass 1  IDiag  1:
 RMSU=  2.15D-03    CP:  9.87D-01  1.32D+00
 E= -5182.35026262896     Delta-E=        3.653725051572 Rises=F Damp=F
 DIIS: error= 9.57D-02 at cycle   3 NSaved=   3.
 NSaved= 3 IEnMin= 2 EnMin= -5186.00398768053     IErMin= 2 ErrMin= 2.20D-02
 ErrMax= 9.57D-02  0.00D+00 EMaxC= 1.00D-01 BMatC= 1.62D+01 BMatP= 2.20D+00
 IDIUse=2 WtCom= 0.00D+00 WtEn= 1.00D+00
 EnCoef did     5 forward-backward iterations
 Coeff-En:   0.149D+00 0.771D+00 0.806D-01
 Coeff:      0.149D+00 0.771D+00 0.806D-01
 Gap=    -0.224 Goal=   None    Shift=    0.000
 Gap=     0.010 Goal=   None    Shift=    0.000
 RMSDP=2.19D-03 MaxDP=1.93D-01 DE= 3.65D+00 OVMax= 9.79D-01

 Cycle   4  Pass 1  IDiag  1:
 RMSU=  1.14D-03    CP:  1.00D+00  2.91D+00  1.86D-01
 E= -5184.84124370584     Delta-E=       -2.490981076879 Rises=F Damp=F
 DIIS: error= 1.23D-01 at cycle   4 NSaved=   4.
 NSaved= 4 IEnMin= 2 EnMin= -5186.00398768053     IErMin= 2 ErrMin= 2.20D-02
 ErrMax= 1.23D-01  0.00D+00 EMaxC= 1.00D-01 BMatC= 1.39D+01 BMatP= 2.20D+00
 IDIUse=2 WtCom= 0.00D+00 WtEn= 1.00D+00
 EnCoef did   100 forward-backward iterations
 Coeff-En:   0.580D+00 0.147D-01 0.241D-01 0.381D+00
 Coeff:      0.580D+00 0.147D-01 0.241D-01 0.381D+00
 Gap=     0.209 Goal=   None    Shift=    0.000
 Gap=     0.156 Goal=   None    Shift=    0.000
 RMSDP=1.22D-03 MaxDP=1.95D-01 DE=-2.49D+00 OVMax= 9.03D-01

 Cycle   5  Pass 1  IDiag  1:
 RMSU=  9.09D-04    CP:  1.00D+00  1.68D+00  2.28D-01  4.39D-01
 E= -5185.91156109430     Delta-E=       -1.070317388465 Rises=F Damp=F
 DIIS: error= 5.86D-02 at cycle   5 NSaved=   5.
 NSaved= 5 IEnMin= 2 EnMin= -5186.00398768053     IErMin= 2 ErrMin= 2.20D-02
 ErrMax= 5.86D-02  0.00D+00 EMaxC= 1.00D-01 BMatC= 5.29D+00 BMatP= 2.20D+00
 IDIUse=2 WtCom= 0.00D+00 WtEn= 1.00D+00
 EnCoef did   100 forward-backward iterations
 Coeff-En:   0.425D+00 0.323D-02 0.515D-02 0.291D+00 0.276D+00
 Coeff:      0.425D+00 0.323D-02 0.515D-02 0.291D+00 0.276D+00
 Gap=     0.205 Goal=   None    Shift=    0.000
 Gap=     0.014 Goal=   None    Shift=    0.000
 RMSDP=1.19D-03 MaxDP=2.71D-01 DE=-1.07D+00 OVMax= 9.87D-01

 Cycle   6  Pass 1  IDiag  1:
 RMSU=  7.99D-04    CP:  1.00D+00  1.52D+00  2.45D-01  5.60D-01  4.38D-02
 E= -5186.07552932185     Delta-E=       -0.163968227551 Rises=F Damp=F
 DIIS: error= 4.17D-02 at cycle   6 NSaved=   6.
 NSaved= 6 IEnMin= 6 EnMin= -5186.07552932185     IErMin= 2 ErrMin= 2.20D-02
 ErrMax= 4.17D-02  0.00D+00 EMaxC= 1.00D-01 BMatC= 4.27D+00 BMatP= 2.20D+00
 IDIUse=2 WtCom= 0.00D+00 WtEn= 1.00D+00
 Coeff-En:   0.000D+00 0.000D+00 0.000D+00 0.000D+00 0.471D+00 0.529D+00
 Coeff:      0.000D+00 0.000D+00 0.000D+00 0.000D+00 0.471D+00 0.529D+00
 Gap=     0.279 Goal=   None    Shift=    0.000
 Gap=     0.012 Goal=   None    Shift=    0.000
 RMSDP=8.31D-04 MaxDP=1.20D-01 DE=-1.64D-01 OVMax= 4.64D-01

 Cycle   7  Pass 1  IDiag  1:
 RMSU=  6.01D-04    CP:  1.00D+00  1.64D+00  1.47D-01  6.37D-01  2.95D-01
                    CP:  4.10D-01
 E= -5186.58829124978     Delta-E=       -0.512761927926 Rises=F Damp=F
 DIIS: error= 2.25D-02 at cycle   7 NSaved=   7.
 NSaved= 7 IEnMin= 7 EnMin= -5186.58829124978     IErMin= 2 ErrMin= 2.20D-02
 ErrMax= 2.25D-02  0.00D+00 EMaxC= 1.00D-01 BMatC= 1.13D+00 BMatP= 2.20D+00
 IDIUse=3 WtCom= 7.75D-01 WtEn= 2.25D-01
 EnCoef did     4 forward-backward iterations
 Coeff-Com: -0.819D-01 0.181D+00 0.263D-01-0.356D-01 0.300D+00 0.282D+00
 Coeff-Com:  0.328D+00
 Coeff-En:   0.000D+00 0.000D+00 0.000D+00 0.000D+00 0.342D+00 0.304D+00
 Coeff-En:   0.354D+00
 Coeff:     -0.635D-01 0.140D+00 0.204D-01-0.276D-01 0.309D+00 0.287D+00
 Coeff:      0.334D+00
 Gap=     0.178 Goal=   None    Shift=    0.000
 Gap=     0.011 Goal=   None    Shift=    0.000
 RMSDP=8.00D-04 MaxDP=1.80D-01 DE=-5.13D-01 OVMax= 9.01D-01

 Cycle   8  Pass 1  IDiag  1:
 RMSU=  6.01D-04    CP:  1.00D+00  1.57D+00  1.95D-01  5.13D-01  3.95D-01
                    CP:  4.54D-01  1.89D-01
 E= -5186.31447948362     Delta-E=        0.273811766157 Rises=F Damp=F
 DIIS: error= 3.68D-02 at cycle   8 NSaved=   8.
 NSaved= 8 IEnMin= 7 EnMin= -5186.58829124978     IErMin= 2 ErrMin= 2.20D-02
 ErrMax= 3.68D-02  0.00D+00 EMaxC= 1.00D-01 BMatC= 2.73D+00 BMatP= 1.13D+00
 IDIUse=2 WtCom= 0.00D+00 WtEn= 1.00D+00
 EnCoef did    11 forward-backward iterations
 Coeff-En:   0.000D+00 0.000D+00 0.000D+00 0.000D+00 0.221D+00 0.779D-01
 Coeff-En:   0.468D+00 0.233D+00
 Coeff:      0.000D+00 0.000D+00 0.000D+00 0.000D+00 0.221D+00 0.779D-01
 Coeff:      0.468D+00 0.233D+00
 Gap=     0.184 Goal=   None    Shift=    0.000
 Gap=     0.010 Goal=   None    Shift=    0.000
 RMSDP=8.22D-04 MaxDP=2.25D-01 DE= 2.74D-01 OVMax= 9.71D-01

 Cycle   9  Pass 1  IDiag  1:
 RMSU=  4.88D-04    CP:  1.00D+00  1.45D+00  2.21D-01  5.00D-01  3.75D-01
                    CP:  5.10D-01  4.21D-01 -6.66D-02
 E= -5186.40365733368     Delta-E=       -0.089177850059 Rises=F Damp=F
 DIIS: error= 2.75D-02 at cycle   9 NSaved=   9.
 NSaved= 9 IEnMin= 7 EnMin= -5186.58829124978     IErMin= 2 ErrMin= 2.20D-02
 ErrMax= 2.75D-02  0.00D+00 EMaxC= 1.00D-01 BMatC= 2.18D+00 BMatP= 1.13D+00
 IDIUse=2 WtCom= 0.00D+00 WtEn= 1.00D+00
 EnCoef did     5 forward-backward iterations
 Coeff-En:   0.000D+00 0.000D+00 0.000D+00 0.000D+00 0.173D+00 0.000D+00
 Coeff-En:   0.348D+00 0.269D+00 0.211D+00
 Coeff:      0.000D+00 0.000D+00 0.000D+00 0.000D+00 0.173D+00 0.000D+00
 Coeff:      0.348D+00 0.269D+00 0.211D+00
 Gap=     0.141 Goal=   None    Shift=    0.000
 Gap=     0.011 Goal=   None    Shift=    0.000
 RMSDP=6.97D-04 MaxDP=1.64D-01 DE=-8.92D-02 OVMax= 8.57D-01

 Cycle  10  Pass 1  IDiag  1:
 RMSU=  3.19D-04    CP:  1.00D+00  1.55D+00  1.90D-01  4.96D-01  6.58D-01
                    CP:  2.11D-01  3.56D-01  4.67D-02 -2.01D-02
 E= -5186.67738778314     Delta-E=       -0.273730449457 Rises=F Damp=F
 DIIS: error= 2.19D-02 at cycle  10 NSaved=  10.
 NSaved=10 IEnMin=10 EnMin= -5186.67738778314     IErMin=10 ErrMin= 2.19D-02
 ErrMax= 2.19D-02  0.00D+00 EMaxC= 1.00D-01 BMatC= 6.93D-01 BMatP= 1.13D+00
 IDIUse=3 WtCom= 7.81D-01 WtEn= 2.19D-01
 EnCoef did     5 forward-backward iterations
 Coeff-Com: -0.541D-01 0.621D-01-0.441D-04-0.974D-02-0.395D-01 0.214D-02
 Coeff-Com:  0.185D+00 0.208D+00 0.181D+00 0.465D+00
 Coeff-En:   0.000D+00 0.000D+00 0.000D+00 0.000D+00 0.000D+00 0.000D+00
 Coeff-En:   0.187D+00 0.213D+00 0.168D+00 0.432D+00
 Coeff:     -0.423D-01 0.485D-01-0.344D-04-0.761D-02-0.309D-01 0.167D-02
 Coeff:      0.186D+00 0.209D+00 0.178D+00 0.458D+00
 Gap=     0.158 Goal=   None    Shift=    0.000
 Gap=     0.013 Goal=   None    Shift=    0.000
 RMSDP=5.11D-04 MaxDP=1.42D-01 DE=-2.74D-01 OVMax= 6.89D-01

 Cycle  11  Pass 1  IDiag  1:
 RMSU=  2.22D-04    CP:  1.00D+00  1.53D+00  1.75D-01  5.80D-01  3.30D-01
                    CP:  4.49D-01  4.49D-01  2.77D-01  1.55D-01  3.19D-01
 E= -5186.78503579200     Delta-E=       -0.107648008865 Rises=F Damp=F
 DIIS: error= 8.93D-03 at cycle  11 NSaved=  11.
 NSaved=11 IEnMin=11 EnMin= -5186.78503579200     IErMin=11 ErrMin= 8.93D-03
 ErrMax= 8.93D-03  0.00D+00 EMaxC= 1.00D-01 BMatC= 1.51D-01 BMatP= 6.93D-01
 IDIUse=3 WtCom= 9.11D-01 WtEn= 8.93D-02
 Coeff-Com: -0.966D-03 0.562D-02-0.495D-02 0.271D-02-0.189D-01-0.316D-01
 Coeff-Com:  0.384D-01 0.110D-01 0.434D-01 0.316D+00 0.639D+00
 Coeff-En:   0.000D+00 0.000D+00 0.000D+00 0.000D+00 0.000D+00 0.000D+00
 Coeff-En:   0.000D+00 0.000D+00 0.000D+00 0.299D+00 0.701D+00
 Coeff:     -0.879D-03 0.511D-02-0.451D-02 0.247D-02-0.172D-01-0.288D-01
 Coeff:      0.349D-01 0.999D-02 0.395D-01 0.315D+00 0.645D+00
 Gap=     0.159 Goal=   None    Shift=    0.000
 Gap=     0.014 Goal=   None    Shift=    0.000
 RMSDP=2.22D-04 MaxDP=4.43D-02 DE=-1.08D-01 OVMax= 2.93D-01

 Cycle  12  Pass 1  IDiag  1:
 RMSU=  9.29D-05    CP:  1.00D+00  1.50D+00  1.70D-01  5.57D-01  4.15D-01
                    CP:  3.46D-01  4.86D-01  1.35D-01  1.70D-01  6.86D-01
                    CP:  6.66D-01
 E= -5186.80909679838     Delta-E=       -0.024061006374 Rises=F Damp=F
 DIIS: error= 2.65D-03 at cycle  12 NSaved=  12.
 NSaved=12 IEnMin=12 EnMin= -5186.80909679838     IErMin=12 ErrMin= 2.65D-03
 ErrMax= 2.65D-03  0.00D+00 EMaxC= 1.00D-01 BMatC= 2.64D-02 BMatP= 1.51D-01
 IDIUse=3 WtCom= 9.73D-01 WtEn= 2.65D-02
 EnCoef did    12 forward-backward iterations
 Coeff-Com:  0.113D-01-0.131D-01-0.910D-03 0.361D-02-0.802D-02-0.191D-01
 Coeff-Com:  0.804D-02-0.220D-01-0.217D-01 0.159D+00 0.514D+00 0.389D+00
 Coeff-En:   0.000D+00 0.000D+00 0.000D+00 0.000D+00 0.000D+00 0.000D+00
 Coeff-En:   0.000D+00 0.000D+00 0.000D+00 0.109D+00 0.345D+00 0.546D+00
 Coeff:      0.110D-01-0.127D-01-0.886D-03 0.351D-02-0.781D-02-0.186D-01
 Coeff:      0.782D-02-0.214D-01-0.212D-01 0.158D+00 0.509D+00 0.393D+00
 Gap=     0.158 Goal=   None    Shift=    0.000
 Gap=     0.013 Goal=   None    Shift=    0.000
 RMSDP=8.17D-05 MaxDP=1.56D-02 DE=-2.41D-02 OVMax= 8.47D-02

 Cycle  13  Pass 1  IDiag  1:
 RMSU=  4.38D-05    CP:  1.00D+00  1.52D+00  1.70D-01  5.58D-01  4.22D-01
                    CP:  3.35D-01  4.72D-01  1.92D-01  9.56D-02  6.80D-01
                    CP:  7.76D-01  5.93D-01
 E= -5186.81293019367     Delta-E=       -0.003833395287 Rises=F Damp=F
 DIIS: error= 1.37D-03 at cycle  13 NSaved=  13.
 NSaved=13 IEnMin=13 EnMin= -5186.81293019367     IErMin=13 ErrMin= 1.37D-03
 ErrMax= 1.37D-03  0.00D+00 EMaxC= 1.00D-01 BMatC= 5.50D-03 BMatP= 2.64D-02
 IDIUse=3 WtCom= 9.86D-01 WtEn= 1.37D-02
 EnCoef did     3 forward-backward iterations
 Coeff-Com:  0.812D-02-0.119D-01 0.234D-02 0.225D-02-0.301D-02-0.487D-02
 Coeff-Com:  0.146D-01-0.112D-01-0.818D-02 0.129D-01 0.160D+00 0.262D+00
 Coeff-Com:  0.577D+00
 Coeff-En:   0.000D+00 0.000D+00 0.000D+00 0.000D+00 0.000D+00 0.000D+00
 Coeff-En:   0.000D+00 0.000D+00 0.000D+00 0.000D+00 0.811D-01 0.220D+00
 Coeff-En:   0.699D+00
 Coeff:      0.801D-02-0.117D-01 0.230D-02 0.222D-02-0.297D-02-0.480D-02
 Coeff:      0.144D-01-0.110D-01-0.807D-02 0.127D-01 0.159D+00 0.262D+00
 Coeff:      0.579D+00
 Gap=     0.160 Goal=   None    Shift=    0.000
 Gap=     0.013 Goal=   None    Shift=    0.000
 RMSDP=4.76D-05 MaxDP=1.08D-02 DE=-3.83D-03 OVMax= 6.19D-02

 Cycle  14  Pass 1  IDiag  1:
 RMSU=  1.75D-05    CP:  1.00D+00  1.52D+00  1.71D-01  5.66D-01  3.97D-01
                    CP:  3.55D-01  4.90D-01  1.89D-01  1.20D-01  6.06D-01
                    CP:  8.13D-01  6.04D-01  6.79D-01
 E= -5186.81378165742     Delta-E=       -0.000851463757 Rises=F Damp=F
 DIIS: error= 8.35D-04 at cycle  14 NSaved=  14.
 NSaved=14 IEnMin=14 EnMin= -5186.81378165742     IErMin=14 ErrMin= 8.35D-04
 ErrMax= 8.35D-04  0.00D+00 EMaxC= 1.00D-01 BMatC= 1.44D-03 BMatP= 5.50D-03
 IDIUse=3 WtCom= 9.92D-01 WtEn= 8.35D-03
 EnCoef did     2 forward-backward iterations
 Coeff-Com:  0.304D-02-0.374D-02 0.849D-03-0.747D-03 0.239D-03-0.124D-02
 Coeff-Com:  0.270D-02-0.411D-02 0.111D-02-0.259D-02 0.286D-01 0.129D+00
 Coeff-Com:  0.349D+00 0.498D+00
 Coeff-En:   0.000D+00 0.000D+00 0.000D+00 0.000D+00 0.000D+00 0.000D+00
 Coeff-En:   0.000D+00 0.000D+00 0.000D+00 0.000D+00 0.000D+00 0.475D-01
 Coeff-En:   0.258D+00 0.695D+00
 Coeff:      0.301D-02-0.371D-02 0.842D-03-0.741D-03 0.237D-03-0.123D-02
 Coeff:      0.268D-02-0.408D-02 0.110D-02-0.256D-02 0.283D-01 0.129D+00
 Coeff:      0.348D+00 0.499D+00
 Gap=     0.158 Goal=   None    Shift=    0.000
 Gap=     0.013 Goal=   None    Shift=    0.000
 RMSDP=1.98D-05 MaxDP=3.88D-03 DE=-8.51D-04 OVMax= 2.49D-02

 Cycle  15  Pass 1  IDiag  1:
 RMSU=  7.36D-06    CP:  1.00D+00  1.52D+00  1.71D-01  5.62D-01  4.07D-01
                    CP:  3.49D-01  4.88D-01  1.79D-01  1.22D-01  6.35D-01
                    CP:  7.90D-01  6.60D-01  7.51D-01  8.22D-01
 E= -5186.81405454456     Delta-E=       -0.000272887139 Rises=F Damp=F
 DIIS: error= 1.71D-04 at cycle  15 NSaved=  15.
 NSaved=15 IEnMin=15 EnMin= -5186.81405454456     IErMin=15 ErrMin= 1.71D-04
 ErrMax= 1.71D-04  0.00D+00 EMaxC= 1.00D-01 BMatC= 9.30D-05 BMatP= 1.44D-03
 IDIUse=3 WtCom= 9.98D-01 WtEn= 1.71D-03
 Coeff-Com:  0.232D-02-0.275D-02 0.166D-03-0.671D-03-0.142D-03 0.395D-03
 Coeff-Com: -0.145D-02-0.961D-03 0.158D-02-0.194D-02-0.406D-02 0.476D-01
 Coeff-Com:  0.132D+00 0.336D+00 0.492D+00
 Coeff-En:   0.000D+00 0.000D+00 0.000D+00 0.000D+00 0.000D+00 0.000D+00
 Coeff-En:   0.000D+00 0.000D+00 0.000D+00 0.000D+00 0.000D+00 0.000D+00
 Coeff-En:   0.000D+00 0.651D-01 0.935D+00
 Coeff:      0.232D-02-0.274D-02 0.166D-03-0.670D-03-0.141D-03 0.394D-03
 Coeff:     -0.144D-02-0.959D-03 0.158D-02-0.193D-02-0.405D-02 0.475D-01
 Coeff:      0.132D+00 0.335D+00 0.493D+00
 Gap=     0.157 Goal=   None    Shift=    0.000
 Gap=     0.013 Goal=   None    Shift=    0.000
 RMSDP=5.40D-06 MaxDP=8.07D-04 DE=-2.73D-04 OVMax= 5.61D-03

 Cycle  16  Pass 1  IDiag  1:
 RMSU=  3.89D-06    CP:  1.00D+00  1.52D+00  1.71D-01  5.62D-01  4.07D-01
                    CP:  3.51D-01  4.87D-01  1.82D-01  1.21D-01  6.31D-01
                    CP:  7.95D-01  6.61D-01  7.73D-01  9.50D-01  9.58D-01
 E= -5186.81406930837     Delta-E=       -0.000014763807 Rises=F Damp=F
 DIIS: error= 8.94D-05 at cycle  16 NSaved=  16.
 NSaved=16 IEnMin=16 EnMin= -5186.81406930837     IErMin=16 ErrMin= 8.94D-05
 ErrMax= 8.94D-05  0.00D+00 EMaxC= 1.00D-01 BMatC= 2.34D-05 BMatP= 9.30D-05
 IDIUse=1 WtCom= 1.00D+00 WtEn= 0.00D+00
 Coeff-Com:  0.138D-02-0.162D-02 0.257D-04-0.202D-03-0.179D-03 0.202D-03
 Coeff-Com: -0.118D-02 0.191D-03 0.169D-02-0.553D-03-0.106D-01 0.435D-02
 Coeff-Com:  0.766D-02 0.130D+00 0.332D+00 0.537D+00
 Coeff:      0.138D-02-0.162D-02 0.257D-04-0.202D-03-0.179D-03 0.202D-03
 Coeff:     -0.118D-02 0.191D-03 0.169D-02-0.553D-03-0.106D-01 0.435D-02
 Coeff:      0.766D-02 0.130D+00 0.332D+00 0.537D+00
 Gap=     0.157 Goal=   None    Shift=    0.000
 Gap=     0.013 Goal=   None    Shift=    0.000
 RMSDP=4.09D-06 MaxDP=6.13D-04 DE=-1.48D-05 OVMax= 5.01D-03

 Cycle  17  Pass 1  IDiag  1:
 RMSU=  2.04D-06    CP:  1.00D+00  1.52D+00  1.71D-01  5.62D-01  4.07D-01
                    CP:  3.51D-01  4.89D-01  1.80D-01  1.23D-01  6.29D-01
                    CP:  7.95D-01  6.66D-01  7.73D-01  1.07D+00  1.21D+00
                    CP:  1.09D+00
 E= -5186.81407399354     Delta-E=       -0.000004685169 Rises=F Damp=F
 DIIS: error= 3.45D-05 at cycle  17 NSaved=  17.
 NSaved=17 IEnMin=17 EnMin= -5186.81407399354     IErMin=17 ErrMin= 3.45D-05
 ErrMax= 3.45D-05  0.00D+00 EMaxC= 1.00D-01 BMatC= 6.04D-06 BMatP= 2.34D-05
 IDIUse=1 WtCom= 1.00D+00 WtEn= 0.00D+00
 Coeff-Com:  0.706D-03-0.819D-03-0.905D-04 0.258D-04-0.665D-04 0.520D-05
 Coeff-Com: -0.807D-03 0.183D-03 0.431D-03 0.976D-03-0.394D-02-0.671D-02
 Coeff-Com: -0.276D-01 0.983D-03 0.886D-01 0.375D+00 0.573D+00
 Coeff:      0.706D-03-0.819D-03-0.905D-04 0.258D-04-0.665D-04 0.520D-05
 Coeff:     -0.807D-03 0.183D-03 0.431D-03 0.976D-03-0.394D-02-0.671D-02
 Coeff:     -0.276D-01 0.983D-03 0.886D-01 0.375D+00 0.573D+00
 Gap=     0.157 Goal=   None    Shift=    0.000
 Gap=     0.013 Goal=   None    Shift=    0.000
 RMSDP=3.42D-06 MaxDP=5.83D-04 DE=-4.69D-06 OVMax= 4.64D-03

 Cycle  18  Pass 1  IDiag  1:
 RMSU=  1.25D-06    CP:  1.00D+00  1.52D+00  1.71D-01  5.62D-01  4.06D-01
                    CP:  3.52D-01  4.91D-01  1.81D-01  1.24D-01  6.26D-01
                    CP:  7.97D-01  6.68D-01  7.82D-01  1.17D+00  1.39D+00
                    CP:  1.43D+00  1.20D+00
 E= -5186.81407397615     Delta-E=        0.000000017386 Rises=F Damp=F
 DIIS: error= 7.52D-05 at cycle  18 NSaved=  18.
 NSaved=18 IEnMin=17 EnMin= -5186.81407399354     IErMin=17 ErrMin= 3.45D-05
 ErrMax= 7.52D-05  0.00D+00 EMaxC= 1.00D-01 BMatC= 1.00D-05 BMatP= 6.04D-06
 IDIUse=1 WtCom= 1.00D+00 WtEn= 0.00D+00
 Coeff-Com:  0.149D-03-0.107D-03-0.889D-04 0.176D-04-0.797D-04-0.332D-05
 Coeff-Com: -0.514D-03 0.487D-04-0.208D-03 0.178D-02-0.128D-02-0.255D-02
 Coeff-Com: -0.726D-02-0.326D-01-0.243D-01 0.467D-01 0.300D+00 0.720D+00
 Coeff:      0.149D-03-0.107D-03-0.889D-04 0.176D-04-0.797D-04-0.332D-05
 Coeff:     -0.514D-03 0.487D-04-0.208D-03 0.178D-02-0.128D-02-0.255D-02
 Coeff:     -0.726D-02-0.326D-01-0.243D-01 0.467D-01 0.300D+00 0.720D+00
 Gap=     0.157 Goal=   None    Shift=    0.000
 Gap=     0.013 Goal=   None    Shift=    0.000
 RMSDP=2.73D-06 MaxDP=3.99D-04 DE= 1.74D-08 OVMax= 3.74D-03

 Cycle  19  Pass 1  IDiag  1:
 RMSU=  5.62D-07    CP:  1.00D+00  1.52D+00  1.71D-01  5.62D-01  4.07D-01
                    CP:  3.52D-01  4.92D-01  1.81D-01  1.24D-01  6.25D-01
                    CP:  7.97D-01  6.72D-01  7.94D-01  1.24D+00  1.58D+00
                    CP:  1.72D+00  1.62D+00  1.49D+00
 E= -5186.81407522850     Delta-E=       -0.000001252345 Rises=F Damp=F
 DIIS: error= 5.95D-05 at cycle  19 NSaved=  19.
 NSaved=19 IEnMin=19 EnMin= -5186.81407522850     IErMin=17 ErrMin= 3.45D-05
 ErrMax= 5.95D-05  0.00D+00 EMaxC= 1.00D-01 BMatC= 6.38D-06 BMatP= 6.04D-06
 IDIUse=1 WtCom= 1.00D+00 WtEn= 0.00D+00
 Coeff-Com: -0.151D-03 0.234D-03-0.205D-04 0.617D-04-0.175D-03 0.228D-04
 Coeff-Com: -0.211D-03 0.172D-04-0.516D-03 0.178D-02-0.830D-03 0.205D-02
 Coeff-Com:  0.146D-01-0.316D-01-0.520D-01-0.148D+00-0.717D-01 0.469D+00
 Coeff-Com:  0.818D+00
 Coeff:     -0.151D-03 0.234D-03-0.205D-04 0.617D-04-0.175D-03 0.228D-04
 Coeff:     -0.211D-03 0.172D-04-0.516D-03 0.178D-02-0.830D-03 0.205D-02
 Coeff:      0.146D-01-0.316D-01-0.520D-01-0.148D+00-0.717D-01 0.469D+00
 Coeff:      0.818D+00
 Gap=     0.158 Goal=   None    Shift=    0.000
 Gap=     0.013 Goal=   None    Shift=    0.000
 RMSDP=3.12D-06 MaxDP=4.73D-04 DE=-1.25D-06 OVMax= 4.30D-03

 Cycle  20  Pass 1  IDiag  1:
 RMSU=  5.02D-07    CP:  1.00D+00  1.52D+00  1.72D-01  5.62D-01  4.07D-01
                    CP:  3.52D-01  4.93D-01  1.81D-01  1.24D-01  6.24D-01
                    CP:  7.97D-01  6.76D-01  8.07D-01  1.33D+00  1.78D+00
                    CP:  2.04D+00  2.12D+00  2.16D+00  1.50D+00
 E= -5186.81407638102     Delta-E=       -0.000001152521 Rises=F Damp=F
 DIIS: error= 3.98D-05 at cycle  20 NSaved=  20.
 NSaved=20 IEnMin=20 EnMin= -5186.81407638102     IErMin=17 ErrMin= 3.45D-05
 ErrMax= 3.98D-05  0.00D+00 EMaxC= 1.00D-01 BMatC= 2.98D-06 BMatP= 6.04D-06
 IDIUse=1 WtCom= 1.00D+00 WtEn= 0.00D+00
 Coeff-Com: -0.218D-03 0.258D-03-0.345D-05 0.517D-04-0.119D-03 0.699D-04
 Coeff-Com: -0.159D-03-0.247D-04-0.319D-03 0.843D-03-0.797D-03 0.354D-02
 Coeff-Com:  0.179D-01-0.657D-02-0.439D-02-0.957D-01-0.238D+00-0.227D+00
 Coeff-Com:  0.628D+00 0.922D+00
 Coeff:     -0.218D-03 0.258D-03-0.345D-05 0.517D-04-0.119D-03 0.699D-04
 Coeff:     -0.159D-03-0.247D-04-0.319D-03 0.843D-03-0.797D-03 0.354D-02
 Coeff:      0.179D-01-0.657D-02-0.439D-02-0.957D-01-0.238D+00-0.227D+00
 Coeff:      0.628D+00 0.922D+00
 Gap=     0.157 Goal=   None    Shift=    0.000
 Gap=     0.013 Goal=   None    Shift=    0.000
 RMSDP=3.24D-06 MaxDP=5.33D-04 DE=-1.15D-06 OVMax= 4.50D-03

 Cycle  21  Pass 1  IDiag  1:
 Restarting incremental Fock formation.
 E= -5186.81407712345     Delta-E=       -0.000000742437 Rises=F Damp=F
 DIIS: error= 1.40D-05 at cycle  21 NSaved=  20.
 NSaved=20 IEnMin=20 EnMin= -5186.81407712345     IErMin=20 ErrMin= 1.40D-05
 ErrMax= 1.40D-05  0.00D+00 EMaxC= 1.00D-01 BMatC= 6.47D-07 BMatP= 2.98D-06
 IDIUse=1 WtCom= 1.00D+00 WtEn= 0.00D+00
 Coeff-Com: -0.177D-03 0.206D-03 0.125D-04-0.132D-04 0.300D-04-0.186D-03
 Coeff-Com: -0.412D-05-0.865D-04-0.405D-04-0.109D-03 0.266D-02 0.101D-01
 Coeff-Com:  0.128D-01 0.292D-01 0.540D-02-0.196D+00-0.501D+00 0.182D+00
 Coeff-Com:  0.892D+00 0.563D+00
 Coeff:     -0.177D-03 0.206D-03 0.125D-04-0.132D-04 0.300D-04-0.186D-03
 Coeff:     -0.412D-05-0.865D-04-0.405D-04-0.109D-03 0.266D-02 0.101D-01
 Coeff:      0.128D-01 0.292D-01 0.540D-02-0.196D+00-0.501D+00 0.182D+00
 Coeff:      0.892D+00 0.563D+00
 Gap=     0.157 Goal=   None    Shift=    0.000
 Gap=     0.013 Goal=   None    Shift=    0.000
 RMSDP=1.99D-06 MaxDP=3.48D-04 DE=-7.42D-07 OVMax= 2.76D-03

 Cycle  22  Pass 1  IDiag  1:
 RMSU=  1.99D-06    CP:  1.00D+00
 E= -5186.81407726730     Delta-E=       -0.000000143849 Rises=F Damp=F
 DIIS: error= 1.41D-05 at cycle  22 NSaved=  20.
 NSaved=20 IEnMin=20 EnMin= -5186.81407726730     IErMin=19 ErrMin= 1.40D-05
 ErrMax= 1.41D-05  0.00D+00 EMaxC= 1.00D-01 BMatC= 3.50D-07 BMatP= 6.47D-07
 IDIUse=1 WtCom= 1.00D+00 WtEn= 0.00D+00
 Coeff-Com: -0.688D-04 0.799D-04 0.367D-04-0.149D-04-0.236D-04-0.164D-05
 Coeff-Com:  0.417D-05-0.345D-03 0.823D-03-0.108D-03-0.198D-02 0.738D-02
 Coeff-Com:  0.707D-02 0.326D-01-0.195D-01-0.153D+00-0.102D+00 0.155D+00
 Coeff-Com:  0.308D+00 0.766D+00
 Coeff:     -0.688D-04 0.799D-04 0.367D-04-0.149D-04-0.236D-04-0.164D-05
 Coeff:      0.417D-05-0.345D-03 0.823D-03-0.108D-03-0.198D-02 0.738D-02
 Coeff:      0.707D-02 0.326D-01-0.195D-01-0.153D+00-0.102D+00 0.155D+00
 Coeff:      0.308D+00 0.766D+00
 Gap=     0.157 Goal=   None    Shift=    0.000
 Gap=     0.013 Goal=   None    Shift=    0.000
 RMSDP=8.30D-07 MaxDP=1.57D-04 DE=-1.44D-07 OVMax= 1.17D-03

 Cycle  23  Pass 1  IDiag  1:
 RMSU=  4.55D-07    CP:  1.00D+00  1.35D+00
 E= -5186.81407735136     Delta-E=       -0.000000084059 Rises=F Damp=F
 DIIS: error= 1.81D-06 at cycle  23 NSaved=  20.
 NSaved=20 IEnMin=20 EnMin= -5186.81407735136     IErMin=20 ErrMin= 1.81D-06
 ErrMax= 1.81D-06  0.00D+00 EMaxC= 1.00D-01 BMatC= 7.59D-09 BMatP= 3.50D-07
 IDIUse=1 WtCom= 1.00D+00 WtEn= 0.00D+00
 Coeff-Com:  0.607D-06 0.242D-04-0.190D-04 0.220D-04-0.901D-05 0.281D-04
 Coeff-Com: -0.179D-03 0.406D-03-0.400D-03-0.231D-02 0.338D-02 0.520D-03
 Coeff-Com:  0.155D-01 0.158D-01-0.459D-02-0.849D-01-0.717D-01 0.472D-01
 Coeff-Com:  0.324D+00 0.757D+00
 Coeff:      0.607D-06 0.242D-04-0.190D-04 0.220D-04-0.901D-05 0.281D-04
 Coeff:     -0.179D-03 0.406D-03-0.400D-03-0.231D-02 0.338D-02 0.520D-03
 Coeff:      0.155D-01 0.158D-01-0.459D-02-0.849D-01-0.717D-01 0.472D-01
 Coeff:      0.324D+00 0.757D+00
 Gap=     0.157 Goal=   None    Shift=    0.000
 Gap=     0.013 Goal=   None    Shift=    0.000
 RMSDP=4.28D-07 MaxDP=7.31D-05 DE=-8.41D-08 OVMax= 6.00D-04

 Cycle  24  Pass 1  IDiag  1:
 RMSU=  1.08D-07    CP:  1.00D+00  1.55D+00  1.14D+00
 E= -5186.81407735526     Delta-E=       -0.000000003893 Rises=F Damp=F
 DIIS: error= 1.64D-06 at cycle  24 NSaved=  20.
 NSaved=20 IEnMin=20 EnMin= -5186.81407735526     IErMin=20 ErrMin= 1.64D-06
 ErrMax= 1.64D-06  0.00D+00 EMaxC= 1.00D-01 BMatC= 9.13D-09 BMatP= 7.59D-09
 IDIUse=1 WtCom= 1.00D+00 WtEn= 0.00D+00
 Coeff-Com:  0.164D-05-0.446D-05 0.195D-04-0.440D-06 0.436D-06-0.113D-04
 Coeff-Com:  0.102D-03-0.281D-03-0.101D-02 0.382D-05-0.250D-02-0.660D-03
 Coeff-Com:  0.113D-01 0.297D-01-0.248D-01-0.695D-01-0.330D-01 0.160D-01
 Coeff-Com:  0.536D+00 0.539D+00
 Coeff:      0.164D-05-0.446D-05 0.195D-04-0.440D-06 0.436D-06-0.113D-04
 Coeff:      0.102D-03-0.281D-03-0.101D-02 0.382D-05-0.250D-02-0.660D-03
 Coeff:      0.113D-01 0.297D-01-0.248D-01-0.695D-01-0.330D-01 0.160D-01
 Coeff:      0.536D+00 0.539D+00
 Gap=     0.157 Goal=   None    Shift=    0.000
 Gap=     0.013 Goal=   None    Shift=    0.000
 RMSDP=1.42D-07 MaxDP=2.47D-05 DE=-3.89D-09 OVMax= 1.98D-04

 Cycle  25  Pass 1  IDiag  1:
 RMSU=  4.35D-08    CP:  1.00D+00  1.62D+00  1.19D+00  1.39D+00
 E= -5186.81407735606     Delta-E=       -0.000000000800 Rises=F Damp=F
 DIIS: error= 1.91D-06 at cycle  25 NSaved=  20.
 NSaved=20 IEnMin=20 EnMin= -5186.81407735606     IErMin=19 ErrMin= 1.64D-06
 ErrMax= 1.91D-06  0.00D+00 EMaxC= 1.00D-01 BMatC= 8.08D-09 BMatP= 7.59D-09
 IDIUse=1 WtCom= 1.00D+00 WtEn= 0.00D+00
 Coeff-Com: -0.699D-06 0.746D-05 0.273D-05-0.652D-05 0.235D-05 0.506D-04
 Coeff-Com: -0.130D-03-0.368D-03-0.301D-03-0.154D-02-0.168D-02 0.465D-02
 Coeff-Com:  0.148D-01-0.452D-02-0.261D-01-0.262D-01-0.663D-01 0.246D+00
 Coeff-Com:  0.324D+00 0.537D+00
 Coeff:     -0.699D-06 0.746D-05 0.273D-05-0.652D-05 0.235D-05 0.506D-04
 Coeff:     -0.130D-03-0.368D-03-0.301D-03-0.154D-02-0.168D-02 0.465D-02
 Coeff:      0.148D-01-0.452D-02-0.261D-01-0.262D-01-0.663D-01 0.246D+00
 Coeff:      0.324D+00 0.537D+00
 Gap=     0.157 Goal=   None    Shift=    0.000
 Gap=     0.013 Goal=   None    Shift=    0.000
 RMSDP=6.80D-08 MaxDP=1.34D-05 DE=-8.00D-10 OVMax= 9.32D-05

 Cycle  26  Pass 1  IDiag  1:
 RMSU=  2.72D-08    CP:  1.00D+00  1.64D+00  1.16D+00  1.71D+00  1.43D+00
 E= -5186.81407735520     Delta-E=        0.000000000851 Rises=F Damp=F
 DIIS: error= 2.81D-06 at cycle  26 NSaved=  20.
 NSaved=20 IEnMin=19 EnMin= -5186.81407735606     IErMin=18 ErrMin= 1.64D-06
 ErrMax= 2.81D-06  0.00D+00 EMaxC= 1.00D-01 BMatC= 1.32D-08 BMatP= 7.59D-09
 IDIUse=1 WtCom= 1.00D+00 WtEn= 0.00D+00
 Coeff-Com: -0.415D-05 0.297D-05-0.598D-05 0.523D-06 0.547D-04-0.549D-04
 Coeff-Com: -0.468D-04-0.444D-03-0.118D-02-0.120D-02 0.322D-03 0.418D-02
 Coeff-Com:  0.904D-02 0.111D-01-0.926D-02-0.938D-01-0.252D-01-0.676D-01
 Coeff-Com:  0.445D+00 0.730D+00
 Coeff:     -0.415D-05 0.297D-05-0.598D-05 0.523D-06 0.547D-04-0.549D-04
 Coeff:     -0.468D-04-0.444D-03-0.118D-02-0.120D-02 0.322D-03 0.418D-02
 Coeff:      0.904D-02 0.111D-01-0.926D-02-0.938D-01-0.252D-01-0.676D-01
 Coeff:      0.445D+00 0.730D+00
 Gap=     0.157 Goal=   None    Shift=    0.000
 Gap=     0.013 Goal=   None    Shift=    0.000
 RMSDP=6.03D-08 MaxDP=7.34D-06 DE= 8.51D-10 OVMax= 8.13D-05

 Cycle  27  Pass 1  IDiag  1:
 RMSU=  1.95D-08    CP:  1.00D+00  1.65D+00  1.20D+00  2.09D+00  2.11D+00
                    CP:  1.58D+00
 E= -5186.81407735701     Delta-E=       -0.000000001804 Rises=F Damp=F
 DIIS: error= 1.72D-06 at cycle  27 NSaved=  20.
 NSaved=20 IEnMin=20 EnMin= -5186.81407735701     IErMin=17 ErrMin= 1.64D-06
 ErrMax= 1.72D-06  0.00D+00 EMaxC= 1.00D-01 BMatC= 5.11D-09 BMatP= 7.59D-09
 IDIUse=1 WtCom= 1.00D+00 WtEn= 0.00D+00
 Coeff-Com: -0.748D-05-0.595D-05-0.195D-05 0.663D-04-0.743D-05 0.816D-04
 Coeff-Com: -0.267D-03-0.912D-03-0.793D-03-0.170D-02-0.800D-03 0.101D-01
 Coeff-Com:  0.212D-01 0.775D-04-0.704D-01-0.840D-01-0.190D+00 0.175D+00
 Coeff-Com:  0.540D+00 0.602D+00
 Coeff:     -0.748D-05-0.595D-05-0.195D-05 0.663D-04-0.743D-05 0.816D-04
 Coeff:     -0.267D-03-0.912D-03-0.793D-03-0.170D-02-0.800D-03 0.101D-01
 Coeff:      0.212D-01 0.775D-04-0.704D-01-0.840D-01-0.190D+00 0.175D+00
 Coeff:      0.540D+00 0.602D+00
 Gap=     0.157 Goal=   None    Shift=    0.000
 Gap=     0.013 Goal=   None    Shift=    0.000
 RMSDP=4.08D-08 MaxDP=6.49D-06 DE=-1.80D-09 OVMax= 5.48D-05

 Cycle  28  Pass 1  IDiag  1:
 RMSU=  1.08D-08    CP:  1.00D+00  1.65D+00  1.22D+00  2.33D+00  2.57D+00
                    CP:  2.19D+00  1.60D+00
 E= -5186.81407735765     Delta-E=       -0.000000000637 Rises=F Damp=F
 DIIS: error= 1.04D-06 at cycle  28 NSaved=  20.
 NSaved=20 IEnMin=20 EnMin= -5186.81407735765     IErMin=20 ErrMin= 1.04D-06
 ErrMax= 1.04D-06  0.00D+00 EMaxC= 1.00D-01 BMatC= 1.92D-09 BMatP= 5.11D-09
 IDIUse=1 WtCom= 1.00D+00 WtEn= 0.00D+00
 Coeff-Com:  0.102D-05-0.272D-05 0.246D-04-0.216D-04-0.471D-05-0.126D-03
 Coeff-Com: -0.687D-03-0.644D-03-0.758D-03 0.109D-02 0.372D-02 0.696D-02
 Coeff-Com: -0.756D-03-0.203D-01-0.154D-01-0.854D-01-0.792D-01-0.694D-01
 Coeff-Com:  0.393D+00 0.868D+00
 Coeff:      0.102D-05-0.272D-05 0.246D-04-0.216D-04-0.471D-05-0.126D-03
 Coeff:     -0.687D-03-0.644D-03-0.758D-03 0.109D-02 0.372D-02 0.696D-02
 Coeff:     -0.756D-03-0.203D-01-0.154D-01-0.854D-01-0.792D-01-0.694D-01
 Coeff:      0.393D+00 0.868D+00
 Gap=     0.157 Goal=   None    Shift=    0.000
 Gap=     0.013 Goal=   None    Shift=    0.000
 RMSDP=4.06D-08 MaxDP=4.17D-06 DE=-6.37D-10 OVMax= 5.60D-05

 Cycle  29  Pass 1  IDiag  1:
 RMSU=  8.44D-09    CP:  1.00D+00  1.65D+00  1.23D+00  2.60D+00  3.00D+00
                    CP:  2.62D+00  2.11D+00  1.14D+00
 E= -5186.81407735793     Delta-E=       -0.000000000282 Rises=F Damp=F
 DIIS: error= 6.85D-07 at cycle  29 NSaved=  20.
 NSaved=20 IEnMin=20 EnMin= -5186.81407735793     IErMin=20 ErrMin= 6.85D-07
 ErrMax= 6.85D-07  0.00D+00 EMaxC= 1.00D-01 BMatC= 8.11D-10 BMatP= 1.92D-09
 IDIUse=1 WtCom= 1.00D+00 WtEn= 0.00D+00
 Coeff-Com: -0.760D-05 0.191D-04-0.105D-04-0.599D-04 0.180D-03-0.298D-04
 Coeff-Com:  0.256D-03-0.533D-03-0.233D-02-0.200D-02 0.320D-02 0.428D-02
 Coeff-Com:  0.914D-02 0.187D-01-0.243D-01-0.124D+00-0.245D+00 0.118D+00
 Coeff-Com:  0.585D+00 0.659D+00
 Coeff:     -0.760D-05 0.191D-04-0.105D-04-0.599D-04 0.180D-03-0.298D-04
 Coeff:      0.256D-03-0.533D-03-0.233D-02-0.200D-02 0.320D-02 0.428D-02
 Coeff:      0.914D-02 0.187D-01-0.243D-01-0.124D+00-0.245D+00 0.118D+00
 Coeff:      0.585D+00 0.659D+00
 Gap=     0.157 Goal=   None    Shift=    0.000
 Gap=     0.013 Goal=   None    Shift=    0.000
 RMSDP=2.26D-08 MaxDP=3.84D-06 DE=-2.82D-10 OVMax= 3.07D-05

 Cycle  30  Pass 1  IDiag  1:
 RMSU=  1.17D-08    CP:  1.00D+00  1.66D+00  1.25D+00  2.70D+00  3.00D+00
                    CP:  2.96D+00  2.54D+00  1.66D+00  1.45D+00
 E= -5186.81407735806     Delta-E=       -0.000000000131 Rises=F Damp=F
 DIIS: error= 2.39D-07 at cycle  30 NSaved=  20.
 NSaved=20 IEnMin=20 EnMin= -5186.81407735806     IErMin=20 ErrMin= 2.39D-07
 ErrMax= 2.39D-07  0.00D+00 EMaxC= 1.00D-01 BMatC= 1.17D-10 BMatP= 8.11D-10
 IDIUse=1 WtCom= 1.00D+00 WtEn= 0.00D+00
 Coeff-Com:  0.103D-05-0.417D-05-0.284D-04 0.445D-04-0.184D-04-0.343D-03
 Coeff-Com:  0.550D-04 0.380D-03-0.675D-03-0.892D-03-0.587D-03-0.321D-02
 Coeff-Com:  0.200D-01 0.246D-01 0.803D-02-0.802D-01-0.956D-01-0.278D-01
 Coeff-Com:  0.386D+00 0.770D+00
 Coeff:      0.103D-05-0.417D-05-0.284D-04 0.445D-04-0.184D-04-0.343D-03
 Coeff:      0.550D-04 0.380D-03-0.675D-03-0.892D-03-0.587D-03-0.321D-02
 Coeff:      0.200D-01 0.246D-01 0.803D-02-0.802D-01-0.956D-01-0.278D-01
 Coeff:      0.386D+00 0.770D+00
 Gap=     0.157 Goal=   None    Shift=    0.000
 Gap=     0.013 Goal=   None    Shift=    0.000
 RMSDP=9.36D-09 MaxDP=1.49D-06 DE=-1.31D-10 OVMax= 1.29D-05

 Cycle  31  Pass 1  IDiag  1:
 RMSU=  2.90D-09    CP:  1.00D+00  1.66D+00  1.26D+00  2.73D+00  3.00D+00
                    CP:  3.00D+00  2.65D+00  1.79D+00  1.98D+00  1.18D+00
 E= -5186.81407735808     Delta-E=       -0.000000000024 Rises=F Damp=F
 DIIS: error= 4.66D-08 at cycle  31 NSaved=  20.
 NSaved=20 IEnMin=20 EnMin= -5186.81407735808     IErMin=20 ErrMin= 4.66D-08
 ErrMax= 4.66D-08  0.00D+00 EMaxC= 1.00D-01 BMatC= 5.52D-12 BMatP= 1.17D-10
 IDIUse=1 WtCom= 1.00D+00 WtEn= 0.00D+00
 Coeff-Com: -0.240D-05-0.210D-04 0.154D-04-0.122D-04-0.181D-03 0.159D-03
 Coeff-Com:  0.445D-03-0.605D-03-0.122D-02-0.243D-03-0.377D-03 0.989D-02
 Coeff-Com:  0.164D-01 0.133D-01-0.265D-01-0.648D-01-0.805D-01 0.148D+00
 Coeff-Com:  0.371D+00 0.615D+00
 Coeff:     -0.240D-05-0.210D-04 0.154D-04-0.122D-04-0.181D-03 0.159D-03
 Coeff:      0.445D-03-0.605D-03-0.122D-02-0.243D-03-0.377D-03 0.989D-02
 Coeff:      0.164D-01 0.133D-01-0.265D-01-0.648D-01-0.805D-01 0.148D+00
 Coeff:      0.371D+00 0.615D+00
 Gap=     0.157 Goal=   None    Shift=    0.000
 Gap=     0.013 Goal=   None    Shift=    0.000
 RMSDP=4.34D-09 MaxDP=6.26D-07 DE=-2.36D-11 OVMax= 5.94D-06

 SCF Done:  E(UM06L) =  -5186.81407736     A.U. after   31 cycles
            NFock= 31  Conv=0.43D-08     -V/T= 2.0017
 <Sx>= 0.0000 <Sy>= 0.0000 <Sz>= 7.0000 <S**2>=56.0605 S= 7.0040
 <L.S>=  0.00000000000    
 KE= 5.178241165945D+03 PE=-2.120343976119D+04 EE= 6.391686751071D+03
 Annihilation of the first spin contaminant:
 S**2 before annihilation    56.0605,   after    56.0003
 Leave Link  502 at Sun Jan 22 11:14:11 2023, MaxMem= 14763950080 cpu:           10177.3 elap:            5133.5
 (Enter /software/commercial/gaussian/g16/AVX2/g16/l508.exe)
 QCSCF skips out because SCF is already converged.
 Leave Link  508 at Sun Jan 22 11:14:11 2023, MaxMem= 14763950080 cpu:               0.0 elap:               0.1
 (Enter /software/commercial/gaussian/g16/AVX2/g16/l601.exe)
 Copying SCF densities to generalized density rwf, IOpCl= 1 IROHF=0.

 **********************************************************************

            Population analysis using the SCF Density.

 **********************************************************************

 Alpha  occ. eigenvalues -- -255.62598-255.62386-255.62081 -30.07053 -30.06897
 Alpha  occ. eigenvalues --  -30.06516 -25.84710 -25.84639 -25.84298 -25.84076
 Alpha  occ. eigenvalues --  -25.83852 -25.83672 -25.83511 -25.83456 -25.83137
 Alpha  occ. eigenvalues --  -19.09262 -18.98322 -18.98309 -18.98287 -18.98275
 Alpha  occ. eigenvalues --  -18.98272 -18.98270 -18.98238 -18.98229 -18.98226
 Alpha  occ. eigenvalues --  -18.98220 -18.98218 -18.98217 -18.96654 -14.40976
 Alpha  occ. eigenvalues --  -14.28415 -10.18089 -10.18079 -10.18078 -10.18067
 Alpha  occ. eigenvalues --  -10.17914 -10.17912  -3.64000  -3.63809  -3.63434
 Alpha  occ. eigenvalues --   -2.39215  -2.39155  -2.38850  -2.37827  -2.37531
 Alpha  occ. eigenvalues --   -2.37110  -2.37063  -2.36850  -2.36478  -1.23375
 Alpha  occ. eigenvalues --   -1.07022  -1.06771  -1.06738  -1.06497  -1.06460
 Alpha  occ. eigenvalues --   -1.06404  -1.06366  -0.99245  -0.99214  -0.98875
 Alpha  occ. eigenvalues --   -0.98789  -0.98759  -0.98665  -0.94345  -0.61607
 Alpha  occ. eigenvalues --   -0.59798  -0.58677  -0.58516  -0.58343  -0.58315
 Alpha  occ. eigenvalues --   -0.58141  -0.55075  -0.54546  -0.49721  -0.49643
 Alpha  occ. eigenvalues --   -0.49028  -0.48129  -0.48010  -0.47889  -0.47676
 Alpha  occ. eigenvalues --   -0.47665  -0.47652  -0.47136  -0.46803  -0.46688
[...]
    15  O   -0.232005   0.095904  -0.066600  -0.024047   0.003697  -0.335706
    16  C    0.196460   0.010555   0.000438   0.003220  -0.015928   0.208934
    17  H    0.042936   0.011943  -0.025448   0.092401  -0.101018   0.114954
    18  Fe   0.489170   4.037549  -0.131092   0.065476   0.003029   0.832831
    19  O   -0.242514   0.091370   0.063401  -0.051198  -0.001006  -0.340736
    20  Fe   0.554719   4.039131   0.096446  -0.380748   0.001416   0.883226
    21  O   -0.232058   0.097873  -0.043238   0.056656   0.001151  -0.335561
    22  O   -0.232165   0.097931  -0.043555   0.056533  -0.000305  -0.335921
    23  Fe   0.546984   4.024748   0.278304   0.274222  -0.009540   0.871351
    24  O   -0.339741   0.593856   0.000807  -0.002212   0.000021  -0.577991
    25  C    0.192267   0.006175   0.006613  -0.002885  -0.016728   0.205424
    26  H    0.040703   0.011902  -0.068267  -0.068543  -0.099159   0.112785
    27  C    0.192432   0.006203   0.007313  -0.002723   0.016400   0.205563
    28  H    0.040794   0.011886  -0.063839  -0.067028   0.103134   0.112869
    29  N    0.245310   0.002033   0.061432   0.109111  -0.000987   0.184837
    30  N   -0.040290   0.012472   0.061399   0.073985  -0.001112  -0.044881
    31  O   -0.070996   0.020940  -0.020005  -0.053581   0.000239  -0.040256
       Tot  -0.000072  13.999996   0.413590   0.080959  -0.008052  -0.000072
 Hirshfeld charges and spin densities with hydrogens summed into heavy atoms:
              Q-H        S-H       Q-CM5   
     1  O   -0.231987   0.095505  -0.335443
     2  O   -0.232929   0.095523  -0.335780
     3  C    0.239304   0.022447   0.323798
     5  O   -0.231695   0.101090  -0.336079
     6  O   -0.230968   0.098651  -0.334623
     7  C    0.236973   0.013922   0.321410
     9  O   -0.242174   0.091264  -0.340331
    10  O   -0.231124   0.098692  -0.334805
    11  O   -0.231616   0.101229  -0.335868
    12  C    0.236909   0.014091   0.321353
    14  O   -0.232772   0.095111  -0.335427
    15  O   -0.232005   0.095904  -0.335706
    16  C    0.239395   0.022499   0.323888
    18  Fe   0.489170   4.037549   0.832831
    19  O   -0.242514   0.091370  -0.340736
    20  Fe   0.554719   4.039131   0.883226
    21  O   -0.232058   0.097873  -0.335561
    22  O   -0.232165   0.097931  -0.335921
    23  Fe   0.546984   4.024748   0.871351
    24  O   -0.339741   0.593856  -0.577991
    25  C    0.232970   0.018077   0.318209
    27  C    0.233226   0.018089   0.318432
    29  N    0.245310   0.002033   0.184837
    30  N   -0.040290   0.012472  -0.044881
    31  O   -0.070996   0.020940  -0.040256
 
 EQQ=  12.8821038631     EQD=-0.313176437823     EDD=-0.246449257739E-02
 EQQ+QD+DD=  12.5664629327    
 
                          Isotropic Fermi Contact Couplings
        Atom                 a.u.       MegaHertz       Gauss      10(-4) cm-1
     1  O(17)              0.09279      -4.01784      -1.43366      -1.34021
     2  O(17)              0.09798      -4.24242      -1.51380      -1.41512
     3  C(13)             -0.00497      -0.39898      -0.14237      -0.13309
     4  H(1)               0.00718       2.29168       0.81773       0.76442
     5  O(17)              0.09981      -4.32162      -1.54206      -1.44154
     6  O(17)              0.10027      -4.34186      -1.54928      -1.44829
     7  C(13)             -0.00241      -0.19338      -0.06900      -0.06451
     8  H(1)               0.00731       2.33386       0.83278       0.77849
     9  O(17)              0.10133      -4.38736      -1.56552      -1.46347
    10  O(17)              0.09954      -4.31002      -1.53792      -1.43767
    11  O(17)              0.10057      -4.35453      -1.55380      -1.45251
    12  C(13)             -0.00240      -0.19283      -0.06881      -0.06432
    13  H(1)               0.00732       2.33643       0.83369       0.77935
    14  O(17)              0.09866      -4.27186      -1.52430      -1.42494
    15  O(17)              0.09202      -3.98452      -1.42178      -1.32909
    16  C(13)             -0.00492      -0.39510      -0.14098      -0.13179
    17  H(1)               0.00718       2.29114       0.81754       0.76424
    18  Fe(57)             0.59714       6.18637       2.20745       2.06355
    19  O(17)              0.10090      -4.36903      -1.55898      -1.45735
    20  Fe(57)             0.65999       6.83750       2.43979       2.28075
    21  O(17)              0.09416      -4.07719      -1.45484      -1.36000
    22  O(17)              0.09340      -4.04404      -1.44302      -1.34895
    23  Fe(57)             0.66395       6.87850       2.45442       2.29442
    24  O(17)              0.45114     -19.53438      -6.97035      -6.51597
    25  C(13)             -0.00314      -0.25253      -0.09011      -0.08423
    26  H(1)               0.00743       2.37078       0.84595       0.79081
    27  C(13)             -0.00302      -0.24249      -0.08653      -0.08089
    28  H(1)               0.00742       2.36844       0.84512       0.79002
    29  N(14)              0.00033       0.00756       0.00270       0.00252
    30  N(14)              0.00339       0.07826       0.02793       0.02611
    31  O(17)              0.04553      -1.97130      -0.70341      -0.65755
 --------------------------------------------------------
       Center         ----  Spin Dipole Couplings  ----
                      3XX-RR        3YY-RR        3ZZ-RR
 --------------------------------------------------------
     1   Atom       -0.172905      0.108090      0.064815
     2   Atom       -0.150963      0.066192      0.084771
     3   Atom        0.018536      0.000723     -0.019259
     4   Atom       -0.011806      0.007907      0.003899
     5   Atom        0.051850     -0.129395      0.077545
     6   Atom        0.098579     -0.178373      0.079794
     7   Atom       -0.013413      0.028057     -0.014644
     8   Atom        0.004815     -0.009898      0.005083
     9   Atom       -0.018050     -0.067667      0.085717
    10   Atom        0.118236     -0.180886      0.062650
    11   Atom        0.072675     -0.133797      0.061122
    12   Atom       -0.006650      0.027211     -0.020561
    13   Atom        0.007524     -0.010299      0.002775
    14   Atom       -0.142845      0.062251      0.080594
    15   Atom       -0.172806      0.097922      0.074885
    16   Atom        0.020680     -0.002198     -0.018482
    17   Atom       -0.010974      0.006733      0.004241
    18   Atom        0.345833     -0.201890     -0.143943
    19   Atom       -0.001410     -0.065195      0.066606
    20   Atom       -0.027597      0.651384     -0.623787
    21   Atom       -0.065482      0.006977      0.058505
    22   Atom       -0.081196      0.001713      0.079483
    23   Atom       -0.497037      0.716030     -0.218993
    24   Atom        0.027498      0.057358     -0.084855
    25   Atom        0.014097      0.008631     -0.022728
    26   Atom       -0.000308     -0.001848      0.002156
    27   Atom        0.009921      0.006478     -0.016400
    28   Atom       -0.002375     -0.002486      0.004861
    29   Atom        0.050164     -0.016795     -0.033369
    30   Atom        0.029957     -0.003518     -0.026439
    31   Atom        0.126394     -0.060856     -0.065539
 --------------------------------------------------------
                        XY            XZ            YZ
 --------------------------------------------------------
     1   Atom       -0.026085     -0.022224      0.241313
     2   Atom       -0.085044     -0.073329      0.235467
     3   Atom        0.007837     -0.017964      0.065974
     4   Atom       -0.004157     -0.007461      0.031610
     5   Atom       -0.118756     -0.220544      0.094695
     6   Atom       -0.027871     -0.232420      0.040252
     7   Atom        0.011327     -0.079561      0.020939
     8   Atom       -0.004876     -0.031038      0.008574
     9   Atom        0.127816     -0.176644     -0.158027
    10   Atom       -0.023168      0.231896     -0.033109
    11   Atom       -0.117126      0.224063     -0.085486
    12   Atom        0.011630      0.078887     -0.021943
    13   Atom       -0.004559      0.031068     -0.008024
    14   Atom       -0.093621      0.085808     -0.229350
    15   Atom       -0.034822      0.035074     -0.241853
    16   Atom        0.003754      0.014916     -0.066787
    17   Atom       -0.005680      0.008260     -0.031440
    18   Atom       -0.631932     -0.023659      0.024781
    19   Atom        0.137172      0.179358      0.154190
    20   Atom        0.295509     -0.015255     -0.016943
    21   Atom        0.148584      0.156085      0.193403
    22   Atom        0.137335     -0.151355     -0.199090
    23   Atom        0.349458     -0.002227     -0.035368
    24   Atom        0.006589     -0.002712     -0.001441
    25   Atom       -0.014297      0.051738      0.052889
    26   Atom        0.010625      0.023007      0.021919
    27   Atom       -0.017425     -0.052613     -0.052942
    28   Atom        0.009286     -0.022907     -0.022319
    29   Atom        0.009847     -0.001680     -0.000207
    30   Atom       -0.014565     -0.001243      0.000395
    31   Atom       -0.052351     -0.004175      0.001056
 --------------------------------------------------------


 ---------------------------------------------------------------------------------
              Anisotropic Spin Dipole Couplings in Principal Axis System
 ---------------------------------------------------------------------------------

       Atom             a.u.   MegaHertz   Gauss  10(-4) cm-1        Axes

              Baa    -0.1753    12.685     4.526     4.231  0.9958  0.0914  0.0003
     1 O(17)  Bbb    -0.1558    11.270     4.022     3.759  0.0612 -0.6703  0.7395
              Bcc     0.3311   -23.955    -8.548    -7.991 -0.0678  0.7364  0.6731
 
              Baa    -0.1815    13.133     4.686     4.381  0.8793  0.4501 -0.1559
     2 O(17)  Bbb    -0.1553    11.236     4.009     3.748  0.4206 -0.5801  0.6975
              Bcc     0.3368   -24.369    -8.695    -8.128 -0.2235  0.6789  0.6994
 
              Baa    -0.0796   -10.679    -3.810    -3.562  0.1880 -0.6344  0.7498
     3 C(13)  Bbb     0.0212     2.848     1.016     0.950  0.9701  0.2390 -0.0410
              Bcc     0.0584     7.831     2.794     2.612 -0.1532  0.7351  0.6604
 
              Baa    -0.0263   -14.017    -5.002    -4.676  0.1897 -0.6541  0.7322
     4 H(1)   Bbb    -0.0126    -6.730    -2.401    -2.245  0.9689  0.2453 -0.0318
              Bcc     0.0389    20.747     7.403     6.921 -0.1588  0.7155  0.6803
 
              Baa    -0.1903    13.772     4.914     4.594  0.5508  0.8183  0.1642
     5 O(17)  Bbb    -0.1441    10.429     3.721     3.479  0.5078 -0.4847  0.7122
              Bcc     0.3345   -24.201    -8.636    -8.073 -0.6624  0.3089  0.6825
 
              Baa    -0.1852    13.399     4.781     4.470 -0.0903  0.9698 -0.2265
     6 O(17)  Bbb    -0.1412    10.216     3.645     3.408  0.6916  0.2247  0.6865
              Bcc     0.3264   -23.615    -8.426    -7.877  0.7166 -0.0947 -0.6910
 
              Baa    -0.0977   -13.117    -4.680    -4.375  0.6877 -0.1790  0.7035
     7 C(13)  Bbb     0.0309     4.153     1.482     1.385  0.2578  0.9662 -0.0062
              Bcc     0.0668     8.964     3.199     2.990 -0.6786  0.1856  0.7106
 
              Baa    -0.0265   -14.157    -5.051    -4.722  0.6802 -0.1683  0.7134
     8 H(1)   Bbb    -0.0114    -6.058    -2.162    -2.021  0.2576  0.9661 -0.0176
              Bcc     0.0379    20.215     7.213     6.743 -0.6863  0.1957  0.7005
 
              Baa    -0.1750    12.663     4.518     4.224 -0.4770  0.8568  0.1961
     9 O(17)  Bbb    -0.1484    10.741     3.833     3.583  0.6953  0.2313  0.6805
              Bcc     0.3234   -23.404    -8.351    -7.807 -0.5377 -0.4610  0.7060
 
              Baa    -0.1860    13.457     4.802     4.489 -0.0855  0.9741  0.2094
    10 O(17)  Bbb    -0.1411    10.208     3.642     3.405 -0.6619 -0.2126  0.7188
              Bcc     0.3270   -23.664    -8.444    -7.894  0.7447 -0.0772  0.6629
 
              Baa    -0.1897    13.723     4.897     4.578  0.5372  0.8192 -0.2007
    11 O(17)  Bbb    -0.1454    10.522     3.754     3.510 -0.4806  0.4929  0.7254
              Bcc     0.3351   -24.245    -8.651    -8.087  0.6932 -0.2932  0.6585
 
              Baa    -0.0974   -13.076    -4.666    -4.362 -0.6577  0.1897  0.7290
    12 C(13)  Bbb     0.0308     4.129     1.473     1.377  0.2548  0.9667 -0.0217
              Bcc     0.0667     8.947     3.193     2.984  0.7089 -0.1715  0.6842
 
              Baa    -0.0265   -14.154    -5.050    -4.721 -0.6492  0.1827  0.7384
    13 H(1)   Bbb    -0.0114    -6.077    -2.168    -2.027  0.2560  0.9666 -0.0140
              Bcc     0.0379    20.231     7.219     6.748  0.7162 -0.1799  0.6743
 
              Baa    -0.1793    12.977     4.631     4.329  0.9077  0.4143  0.0659
    14 O(17)  Bbb    -0.1553    11.235     4.009     3.747 -0.3319  0.6131  0.7169
              Bcc     0.3346   -24.212    -8.639    -8.076  0.2566 -0.6727  0.6940
 
              Baa    -0.1777    12.859     4.588     4.289  0.9934  0.0279 -0.1112
    15 O(17)  Bbb    -0.1556    11.262     4.019     3.757  0.0609  0.6933  0.7181
              Bcc     0.3334   -24.121    -8.607    -8.046 -0.0971  0.7201 -0.6870
 
              Baa    -0.0795   -10.667    -3.806    -3.558 -0.1356  0.6515  0.7464
    16 C(13)  Bbb     0.0212     2.840     1.014     0.947  0.9721  0.2331 -0.0269
              Bcc     0.0583     7.826     2.793     2.611 -0.1915  0.7219 -0.6649
 
              Baa    -0.0263   -14.019    -5.002    -4.676 -0.1450  0.6692  0.7288
    17 H(1)   Bbb    -0.0126    -6.731    -2.402    -2.245  0.9703  0.2402 -0.0275
              Bcc     0.0389    20.749     7.404     6.921 -0.1934  0.7032 -0.6842
 
              Baa    -0.6169   -10.680    -3.811    -3.562  0.5484  0.8361 -0.0164
    18 Fe(57) Bbb    -0.1450    -2.511    -0.896    -0.838  0.0398 -0.0065  0.9992
              Bcc     0.7619    13.191     4.707     4.400  0.8353 -0.5486 -0.0368
 
              Baa    -0.1760    12.735     4.544     4.248 -0.4740  0.8586 -0.1952
    19 O(17)  Bbb    -0.1484    10.737     3.831     3.581 -0.6718 -0.2093  0.7106
              Bcc     0.3244   -23.471    -8.375    -7.829  0.5692  0.4680  0.6760
 
              Baa    -0.6243   -10.808    -3.856    -3.605  0.0214  0.0083  0.9997
    20 Fe(57) Bbb    -0.1381    -2.390    -0.853    -0.797  0.9363 -0.3508 -0.0172
              Bcc     0.7623    13.198     4.709     4.402  0.3506  0.9364 -0.0153
 
              Baa    -0.1825    13.203     4.711     4.404  0.8236 -0.5611 -0.0832
    21 O(17)  Bbb    -0.1593    11.525     4.112     3.844 -0.3211 -0.5821  0.7471
              Bcc     0.3417   -24.728    -8.824    -8.248  0.4675  0.5886  0.6595
 
              Baa    -0.1834    13.269     4.735     4.426  0.8323 -0.5509  0.0620
    22 O(17)  Bbb    -0.1586    11.476     4.095     3.828  0.3441  0.6011  0.7213
              Bcc     0.3420   -24.745    -8.830    -8.254 -0.4346 -0.5790  0.6898
 
              Baa    -0.5906   -10.226    -3.649    -3.411  0.9657 -0.2588 -0.0188
    23 Fe(57) Bbb    -0.2200    -3.809    -1.359    -1.271  0.0269  0.0277  0.9993
              Bcc     0.8107    14.035     5.008     4.682  0.2581  0.9655 -0.0337
 
              Baa    -0.0849     6.146     2.193     2.050  0.0236  0.0090  0.9997
    24 O(17)  Bbb     0.0262    -1.893    -0.675    -0.631  0.9780 -0.2075 -0.0212
              Bcc     0.0588    -4.253    -1.518    -1.419  0.2073  0.9782 -0.0137
 
              Baa    -0.0875   -11.745    -4.191    -3.918 -0.4506 -0.4807  0.7522
    25 C(13)  Bbb     0.0256     3.442     1.228     1.148 -0.6939  0.7188  0.0437
              Bcc     0.0619     8.303     2.963     2.770  0.5617  0.5023  0.6575
 
              Baa    -0.0261   -13.942    -4.975    -4.651 -0.4733 -0.4671  0.7469
    26 H(1)   Bbb    -0.0117    -6.257    -2.233    -2.087 -0.6933  0.7206  0.0113
              Bcc     0.0379    20.199     7.207     6.738  0.5435  0.5125  0.6649
 
              Baa    -0.0876   -11.749    -4.192    -3.919  0.4794  0.4963  0.7238
    27 C(13)  Bbb     0.0256     3.436     1.226     1.146 -0.6973  0.7162 -0.0293
              Bcc     0.0619     8.312     2.966     2.773 -0.5329 -0.4906  0.6894
 
              Baa    -0.0261   -13.948    -4.977    -4.652  0.5048  0.4793  0.7180
    28 H(1)   Bbb    -0.0117    -6.250    -2.230    -2.085 -0.6947  0.7192  0.0083
              Bcc     0.0379    20.198     7.207     6.737 -0.5124 -0.5030  0.6960
 
              Baa    -0.0334    -1.288    -0.460    -0.430  0.0200  0.0006  0.9998
    29 N(14)  Bbb    -0.0182    -0.702    -0.251    -0.234 -0.1425  0.9898  0.0023
              Bcc     0.0516     1.991     0.710     0.664  0.9896  0.1425 -0.0199
 
              Baa    -0.0265    -1.021    -0.364    -0.340  0.0210 -0.0038  0.9998
    30 N(14)  Bbb    -0.0090    -0.346    -0.123    -0.115  0.3503  0.9366 -0.0038
              Bcc     0.0354     1.367     0.488     0.456  0.9364 -0.3503 -0.0211
 
              Baa    -0.0745     5.391     1.924     1.798  0.2522  0.9677  0.0035
    31 O(17)  Bbb    -0.0656     4.749     1.695     1.584  0.0194 -0.0086  0.9998
              Bcc     0.1401   -10.139    -3.618    -3.382  0.9675 -0.2521 -0.0209
 

 ---------------------------------------------------------------------------------

 No NMR shielding tensors so no spin-rotation constants.
 Leave Link  601 at Mon Jan 23 03:06:08 2023, MaxMem= 14763950080 cpu:              18.7 elap:               9.6
 (Enter /software/commercial/gaussian/g16/AVX2/g16/l9999.exe)
 Unable to Open any file for archive entry.
 1\1\GINC-NODE2010\FOpt\UM06L\Gen\C6H6Fe3N2O14(15)\SVICCHI\23-Jan-2023\
 0\\#p opt=(cartesian,maxcycle=500) gen um06l int=grid=ultrafine scf=(x
 qc,intrep,maxconventionalcycle=150) pop=(hirshfeld) nosymm\\FeFeFe-AO-
 0xH2O\\0,15\O,0.98967917,2.5403208425,1.3584295041\O,-1.1874443123,1.9
 58684979,1.4605471015\C,-0.1800149068,2.6211786995,1.8023166863\H,-0.3
 418419024,3.3687520078,2.5974841881\O,2.3231721066,-1.7512584338,-1.44
 07045698\O,2.8963383785,0.4288303696,-1.4822636691\C,2.9683331723,-0.7
 622905124,-1.864668929\H,3.684036878,-0.9671002904,-2.6784843018\O,-1.
 9437947686,-0.8395863599,1.4731503406\O,2.9571112443,0.4705814277,1.34
 38162858\O,2.3887267068,-1.7111649889,1.3658497106\C,3.0477579854,-0.7
 133308162,1.7448281883\H,3.7966953507,-0.9013348518,2.5323969892\O,-1.
 2488710441,1.9479480352,-1.4176075364\O,0.9364880914,2.5052396463,-1.4
 675251925\C,-0.2588857053,2.5911788154,-1.8369057789\H,-0.4630936411,3
 .3245645973,-2.6355271185\Fe,-1.3824714303,0.5257410305,0.0319111429\O
 ,-2.0112465333,-0.848940784,-1.3701971861\Fe,0.9080150807,-1.858177208
 5,-0.0027897458\O,-0.4539588352,-2.4823496553,-1.3669189182\O,-0.38226
 00688,-2.4684161526,1.4320468274\Fe,1.7489547302,1.3005977154,-0.05601
 99606\O,0.4177652511,-0.0411457825,-0.0080690033\C,-1.5125535723,-1.93
 27901404,-1.7537697212\H,-2.0748450862,-2.4740400827,-2.5342706936\C,-
 1.4257868788,-1.9149381644,1.8538722514\H,-1.9523131475,-2.4445255473,
 2.6666541429\N,-4.4180955516,0.0505153007,0.0938425511\N,-5.1150745406
 ,-0.8283024058,0.1064384881\O,-3.6967442226,0.9902233576,0.0812826608\
 \Version=ES64L-G16RevC.02\HF=-5186.8140796\S2=56.060563\S2-1=0.\S2A=56
 .000302\RMSD=8.993e-09\RMSF=1.395e-05\Dipole=-0.5424239,0.0883621,0.01
 19532\Quadrupole=2.5085412,-3.371328,0.8627868,-1.4220189,0.0011761,0.
 0547534\PG=C01 [X(C6H6Fe3N2O14)]\\@
 The archive entry for this job was punched.


 Sorry, no quote for you today!
 Job cpu time:       1 days 10 hours 18 minutes 53.7 seconds.
 Elapsed time:       0 days 17 hours 16 minutes 57.8 seconds.
 File lengths (MBytes):  RWF=    725 Int=      0 D2E=      0 Chk=     69 Scr=      1
 Normal termination of Gaussian 16 at Mon Jan 23 03:06:09 2023.
