 Entering Gaussian System, Link 0=g16
 Input=FeFeFe-AO-0xH2O-freq.gjf
 Output=FeFeFe-AO-0xH2O-freq.log
 AtFile(1): /zfs/curium/svicchi/00-MOF/01-Gaussian/zw-basis-set/def2-TZVP/H.gbs
            !----------------------------------------------------------------------
            ! Basis Set Exchange
            ! Version v0.9
            ! https://www.basissetexchange.org
            !----------------------------------------------------------------------
            !   Basis set: def2-TZVP
            ! Description: def2-TZVP
            !        Role: orbital
            !     Version: 1  (Data from Turbomole 7.3)
            !----------------------------------------------------------------------
            H     0
            S    3   1.00
                 34.0613410              0.60251978D-02
                  5.1235746              0.45021094D-01
                  1.1646626              0.20189726
            S    1   1.00
                  0.32723041             1.0000000
            S    1   1.00
                  0.10307241             1.0000000
            P    1   1.00
                  0.8000000              1.0000000
 AtFile(1): /zfs/curium/svicchi/00-MOF/01-Gaussian/zw-basis-set/def2-TZVP/O.gbs
            !----------------------------------------------------------------------
            ! Basis Set Exchange
            ! Version v0.9
            ! https://www.basissetexchange.org
            !----------------------------------------------------------------------
            !   Basis set: def2-TZVP
            ! Description: def2-TZVP
            !        Role: orbital
            !     Version: 1  (Data from Turbomole 7.3)
            !----------------------------------------------------------------------
            O     0
            S    6   1.00
              27032.3826310              0.21726302465D-03
               4052.3871392              0.16838662199D-02
                922.32722710             0.87395616265D-02
                261.24070989             0.35239968808D-01
                 85.354641351            0.11153519115
                 31.035035245            0.25588953961
            S    2   1.00
                 12.260860728            0.39768730901
                  4.9987076005           0.24627849430
            S    1   1.00
                  1.1703108158           1.0000000
            S    1   1.00
                  0.46474740994          1.0000000
            S    1   1.00
                  0.18504536357          1.0000000
            P    4   1.00
                 63.274954801            0.60685103418D-02
                 14.627049379            0.41912575824D-01
                  4.4501223456           0.16153841088
                  1.5275799647           0.35706951311
            P    1   1.00
                  0.52935117943           .44794207502
            P    1   1.00
                  0.17478421270           .24446069663
            D    1   1.00
                  2.31400000             1.0000000
            D    1   1.00
                  0.64500000             1.0000000
            F    1   1.00
                  1.42800000             1.0000000
 AtFile(1): /zfs/curium/svicchi/00-MOF/01-Gaussian/zw-basis-set/def2-TZVP/C.gbs
            !----------------------------------------------------------------------
            ! Basis Set Exchange
            ! Version v0.9
            ! https://www.basissetexchange.org
            !----------------------------------------------------------------------
            !   Basis set: def2-TZVP
            ! Description: def2-TZVP
            !        Role: orbital
            !     Version: 1  (Data from Turbomole 7.3)
            !----------------------------------------------------------------------
            C     0
            S    6   1.00
              13575.3496820              0.22245814352D-03
               2035.2333680              0.17232738252D-02
                463.22562359             0.89255715314D-02
                131.20019598             0.35727984502D-01
                 42.853015891            0.11076259931
                 15.584185766            0.24295627626
            S    2   1.00
                  6.2067138508           0.41440263448
                  2.5764896527           0.23744968655
            S    1   1.00
                  0.57696339419          1.0000000
            S    1   1.00
                  0.22972831358          1.0000000
            S    1   1.00
                  0.95164440028D-01      1.0000000
            P    4   1.00
                 34.697232244            0.53333657805D-02
                  7.9582622826           0.35864109092D-01
                  2.3780826883           0.14215873329
                  0.81433208183          0.34270471845
            P    1   1.00
                  0.28887547253           .46445822433
            P    1   1.00
                  0.10056823671           .24955789874
            D    1   1.00
                  1.09700000             1.0000000
            D    1   1.00
                  0.31800000             1.0000000
            F    1   1.00
                  0.76100000             1.0000000
 AtFile(1): /zfs/curium/svicchi/00-MOF/01-Gaussian/zw-basis-set/def2-TZVP/Fe.gbs
            !----------------------------------------------------------------------
            ! Basis Set Exchange
            ! Version v0.9
            ! https://www.basissetexchange.org
            !----------------------------------------------------------------------
            !   Basis set: def2-TZVP
            ! Description: def2-TZVP
            !        Role: orbital
            !     Version: 1  (Data from Turbomole 7.3)
            !----------------------------------------------------------------------
            Fe     0
            S    8   1.00
             300784.8463700              0.22806273096D-03
              45088.9705570              0.17681788761D-02
              10262.5163170              0.91927083490D-02
               2905.2897293              0.37355495807D-01
                946.11487137             0.12151108426
                339.87832894             0.28818881468
                131.94425588             0.41126612677
                 52.111494077            0.21518583573
            S    4   1.00
                329.48839267            -0.24745216477D-01
                101.92332739            -0.11683089050
                 16.240462745            0.55293621136
                  6.8840675801           0.53601640182
            S    2   1.00
                 10.470693782           -0.22912708577
                  1.7360039648           0.71159319984
            S    1   1.00
                  0.72577288979          1.0000000
            S    1   1.00
                  0.11595528203          1.0000000
            S    1   1.00
                  0.41968227746D-01      1.0000000
            P    6   1.00
               1585.3959970              0.23793960179D-02
                375.38006499             0.19253154755D-01
                120.31816501             0.90021836536D-01
                 44.788749031            0.25798172356
                 17.829278584            0.41492649744
                  7.2247153786           0.24207474784
            P    3   1.00
                 28.143219756           -0.29041755152D-01
                  3.8743241412           0.55312260343
                  1.5410752281           0.96771136842
            P    1   1.00
                  0.58285615250          1.0000000
            P    1   1.00
                  0.1349150              1.0000000
            D    4   1.00
                 61.996675034            0.11971972255D-01
                 17.873732552            0.73210135410D-01
                  6.2744782934           0.23103094314
                  2.3552337175           0.39910706494
            D    1   1.00
                  0.85432239901           .41391589765
            D    1   1.00
                  0.27869254413           .21909269782
            D    1   1.00
                  0.0910000              1.0000000
            F    1   1.00
                  1.5980000              1.0000000
 AtFile(1): /zfs/curium/svicchi/00-MOF/01-Gaussian/zw-basis-set/def2-TZVP/N.gbs
            !----------------------------------------------------------------------
            ! Basis Set Exchange
            ! Version v0.9
            ! https://www.basissetexchange.org
            !----------------------------------------------------------------------
            !   Basis set: def2-TZVP
            ! Description: def2-TZVP
            !        Role: orbital
            !     Version: 1  (Data from Turbomole 7.3)
            !----------------------------------------------------------------------
            N     0
            S    6   1.00
              19730.8006470              0.21887984991D-03
               2957.8958745              0.16960708803D-02
                673.22133595             0.87954603538D-02
                190.68249494             0.35359382605D-01
                 62.295441898            0.11095789217
                 22.654161182            0.24982972552
            S    2   1.00
                  8.9791477428           0.40623896148
                  3.6863002370           0.24338217176
            S    1   1.00
                  0.84660076805          1.0000000
            S    1   1.00
                  0.33647133771          1.0000000
            S    1   1.00
                  0.13647653675          1.0000000
            P    4   1.00
                 49.200380510            0.55552416751D-02
                 11.346790537            0.38052379723D-01
                  3.4273972411           0.14953671029
                  1.1785525134           0.34949305230
            P    1   1.00
                  0.41642204972           .45843153697
            P    1   1.00
                  0.14260826011           .24428771672
            D    1   1.00
                  1.65400000             1.0000000
            D    1   1.00
                  0.46900000             1.0000000
            F    1   1.00
                  1.09300000             1.0000000
 Initial command:
 /software/commercial/gaussian/g16/AVX2/g16/l1.exe "/scratch1/svicchi/G09-56282.pbs02/Gau-835299.inp" -scrdir="/scratch1/svicchi/G09-56282.pbs02/"
 Entering Link 1 = /software/commercial/gaussian/g16/AVX2/g16/l1.exe PID=    835300.
  
 Copyright (c) 1988-2021, Gaussian, Inc.  All Rights Reserved.
  
 This is part of the Gaussian(R) 16 program.  It is based on
 the Gaussian(R) 09 system (copyright 2009, Gaussian, Inc.),
 the Gaussian(R) 03 system (copyright 2003, Gaussian, Inc.),
 the Gaussian(R) 98 system (copyright 1998, Gaussian, Inc.),
 the Gaussian(R) 94 system (copyright 1995, Gaussian, Inc.),
 the Gaussian 92(TM) system (copyright 1992, Gaussian, Inc.),
 the Gaussian 90(TM) system (copyright 1990, Gaussian, Inc.),
 the Gaussian 88(TM) system (copyright 1988, Gaussian, Inc.),
 the Gaussian 86(TM) system (copyright 1986, Carnegie Mellon
 University), and the Gaussian 82(TM) system (copyright 1983,
 Carnegie Mellon University). Gaussian is a federally registered
 trademark of Gaussian, Inc.
  
 This software contains proprietary and confidential information,
 including trade secrets, belonging to Gaussian, Inc.
  
 This software is provided under written license and may be
 used, copied, transmitted, or stored only in accord with that
 written license.
  
 The following legend is applicable only to US Government
 contracts under FAR:
  
                    RESTRICTED RIGHTS LEGEND
  
 Use, reproduction and disclosure by the US Government is
 subject to restrictions as set forth in subparagraphs (a)
 and (c) of the Commercial Computer Software - Restricted
 Rights clause in FAR 52.227-19.
  
 Gaussian, Inc.
 340 Quinnipiac St., Bldg. 40, Wallingford CT 06492
  
  
 ---------------------------------------------------------------
 Warning -- This program may not be used in any manner that
 competes with the business of Gaussian, Inc. or will provide
 assistance to any competitor of Gaussian, Inc.  The licensee
 of this program is prohibited from giving any competitor of
 Gaussian, Inc. access to this program.  By using this program,
 the user acknowledges that Gaussian, Inc. is engaged in the
 business of creating and licensing software in the field of
 computational chemistry and represents and warrants to the
 licensee that it is not a competitor of Gaussian, Inc. and that
 it will not use this program in any manner prohibited above.
 ---------------------------------------------------------------
  

 Cite this work as:
 Gaussian 16, Revision C.02,
 M. J. Frisch, G. W. Trucks, H. B. Schlegel, G. E. Scuseria, 
 M. A. Robb, J. R. Cheeseman, G. Scalmani, V. Barone, 
 G. A. Petersson, H. Nakatsuji, X. Li, M. Caricato, A. V. Marenich, 
 J. Bloino, B. G. Janesko, R. Gomperts, B. Mennucci, H. P. Hratchian, 
 J. V. Ortiz, A. F. Izmaylov, J. L. Sonnenberg, D. Williams-Young, 
 F. Ding, F. Lipparini, F. Egidi, J. Goings, B. Peng, A. Petrone, 
 T. Henderson, D. Ranasinghe, V. G. Zakrzewski, J. Gao, N. Rega, 
 G. Zheng, W. Liang, M. Hada, M. Ehara, K. Toyota, R. Fukuda, 
 J. Hasegawa, M. Ishida, T. Nakajima, Y. Honda, O. Kitao, H. Nakai, 
 T. Vreven, K. Throssell, J. A. Montgomery, Jr., J. E. Peralta, 
 F. Ogliaro, M. J. Bearpark, J. J. Heyd, E. N. Brothers, K. N. Kudin, 
 V. N. Staroverov, T. A. Keith, R. Kobayashi, J. Normand, 
 K. Raghavachari, A. P. Rendell, J. C. Burant, S. S. Iyengar, 
 J. Tomasi, M. Cossi, J. M. Millam, M. Klene, C. Adamo, R. Cammi, 
 J. W. Ochterski, R. L. Martin, K. Morokuma, O. Farkas, 
 J. B. Foresman, and D. J. Fox, Gaussian, Inc., Wallingford CT, 2019.
 
 ******************************************
 Gaussian 16:  ES64L-G16RevC.02  7-Dec-2021
                23-Jan-2023 
 ******************************************
 %NProcShared=2
 Will use up to    2 processors via shared memory.
 %mem=110gb
 %chk=/scratch1/svicchi/G09-56282.pbs02/02-freq/FeFeFe-AO-0xH2O-freq.chk
 ----------------------------------------------------------------------
 #p freq=raman scale=0.967 guess=read geom=allcheck gen um06l int=grid=
 ultrafine scf=(xqc,intrep,maxconventionalcycle=150) pop=(hirshfeld) no
 symm
 ----------------------------------------------------------------------
 1/10=4,29=7,30=1,38=1,114=967000/1,3;
 2/12=2,15=1,40=1/2;
 3/5=7,11=2,14=-4,25=1,30=1,71=2,74=-53,75=-5,116=2,140=1/1,2,3;
 4/5=1/1;
 5/5=2,8=3,13=1,17=20,38=6,85=150,98=1/2,8;
 8/6=4,10=90,11=11/1;
 10/13=10,15=4,31=1/2;
 11/6=3,8=1,9=11,15=111,16=1,31=1/1,2,10;
 10/6=1,31=1/2;
 6/7=2,8=2,9=2,10=2,28=1,79=1/1;
 7/8=1,10=1,25=1,30=1/1,2,3,16;
 1/10=4,30=1/3;
 99//99;
 Leave Link    1 at Mon Jan 23 04:45:27 2023, MaxMem= 14763950080 cpu:               0.0 elap:               0.1
 (Enter /software/commercial/gaussian/g16/AVX2/g16/l101.exe)
 Structure from the checkpoint file:  "/scratch1/svicchi/G09-56282.pbs02/02-freq/FeFeFe-AO-0xH2O-freq.chk"
 ---------------
 FeFeFe-AO-0xH2O
 ---------------
 Charge =  0 Multiplicity =15
 No Z-Matrix found in chk file; cartesian coordinates used.
  O                                                 0.989679170022      2.540320842461      1.358429504090
  O                                                -1.187444312309      1.958684979014      1.460547101522
  C                                                -0.180014906780      2.621178699532      1.802316686273
  H                                                -0.341841902383      3.368752007750      2.597484188132
  O                                                 2.323172106606     -1.751258433816     -1.440704569826
  O                                                 2.896338378485      0.428830369598     -1.482263669137
  C                                                 2.968333172329     -0.762290512383     -1.864668928967
  H                                                 3.684036878008     -0.967100290417     -2.678484301778
  O                                                -1.943794768585     -0.839586359910      1.473150340585
  O                                                 2.957111244291      0.470581427681      1.343816285839
  O                                                 2.388726706786     -1.711164988946      1.365849710616
  C                                                 3.047757985368     -0.713330816232      1.744828188252
  H                                                 3.796695350721     -0.901334851779      2.532396989212
  O                                                -1.248871044126      1.947948035193     -1.417607536420
  O                                                 0.936488091429      2.505239646300     -1.467525192533
  C                                                -0.258885705270      2.591178815369     -1.836905778879
  H                                                -0.463093641125      3.324564597301     -2.635527118520
  Fe                                               -1.382471430269      0.525741030452      0.031911142899
  O                                                -2.011246533270     -0.848940783966     -1.370197186055
  Fe                                                0.908015080667     -1.858177208521     -0.002789745846
  O                                                -0.453958835245     -2.482349655340     -1.366918918208
  O                                                -0.382260068755     -2.468416152608      1.432046827363
  Fe                                                1.748954730197      1.300597715411     -0.056019960603
  O                                                 0.417765251053     -0.041145782527     -0.008069003325
  C                                                -1.512553572253     -1.932790140354     -1.753769721178
  H                                                -2.074845086189     -2.474040082702     -2.534270693639
  C                                                -1.425786878776     -1.914938164368      1.853872251442
  H                                                -1.952313147534     -2.444525547272      2.666654142876
  N                                                -4.418095551553      0.050515300661      0.093842551126
  N                                                -5.115074540584     -0.828302405847      0.106438488061
  O                                                -3.696744222555      0.990223357565      0.081282660827
 Recover connectivity data from disk.
 ITRead=  0  0  0  0  0  0  0  0  0  0  0  0  0  0  0  0  0  0  0  0
 ITRead=  0  0  0  0  0  0  0  0  0  0  0
 MicOpt= -1 -1 -1 -1 -1 -1 -1 -1 -1 -1 -1 -1 -1 -1 -1 -1 -1 -1 -1 -1
 MicOpt= -1 -1 -1 -1 -1 -1 -1 -1 -1 -1 -1
 NAtoms=     31 NQM=       31 NQMF=       0 NMMI=      0 NMMIF=      0
                NMic=       0 NMicF=      0.
                    Isotopes and Nuclear Properties:
 (Nuclear quadrupole moments (NQMom) in fm**2, nuclear magnetic moments (NMagM)
  in nuclear magnetons)

  Atom         1           2           3           4           5           6           7           8           9          10
 IAtWgt=          16          16          12           1          16          16          12           1          16          16
 AtmWgt=  15.9949146  15.9949146  12.0000000   1.0078250  15.9949146  15.9949146  12.0000000   1.0078250  15.9949146  15.9949146
 NucSpn=           0           0           0           1           0           0           0           1           0           0
 AtZEff=   5.6000000   5.6000000   3.6000000   1.0000000   5.6000000   5.6000000   3.6000000   1.0000000   5.6000000   5.6000000
 NQMom=    0.0000000   0.0000000   0.0000000   0.0000000   0.0000000   0.0000000   0.0000000   0.0000000   0.0000000   0.0000000
 NMagM=    0.0000000   0.0000000   0.0000000   2.7928460   0.0000000   0.0000000   0.0000000   2.7928460   0.0000000   0.0000000
 AtZNuc=   8.0000000   8.0000000   6.0000000   1.0000000   8.0000000   8.0000000   6.0000000   1.0000000   8.0000000   8.0000000

  Atom        11          12          13          14          15          16          17          18          19          20
 IAtWgt=          16          12           1          16          16          12           1          56          16          56
 AtmWgt=  15.9949146  12.0000000   1.0078250  15.9949146  15.9949146  12.0000000   1.0078250  55.9349393  15.9949146  55.9349393
 NucSpn=           0           0           1           0           0           0           1           0           0           0
 AtZEff=   5.6000000   3.6000000   1.0000000   5.6000000   5.6000000   3.6000000   1.0000000  25.2200000   5.6000000  25.2200000
 NQMom=    0.0000000   0.0000000   0.0000000   0.0000000   0.0000000   0.0000000   0.0000000   0.0000000   0.0000000   0.0000000
 NMagM=    0.0000000   0.0000000   2.7928460   0.0000000   0.0000000   0.0000000   2.7928460   0.0000000   0.0000000   0.0000000
 AtZNuc=   8.0000000   6.0000000   1.0000000   8.0000000   8.0000000   6.0000000   1.0000000  26.0000000   8.0000000  26.0000000

  Atom        21          22          23          24          25          26          27          28          29          30
 IAtWgt=          16          16          56          16          12           1          12           1          14          14
 AtmWgt=  15.9949146  15.9949146  55.9349393  15.9949146  12.0000000   1.0078250  12.0000000   1.0078250  14.0030740  14.0030740
 NucSpn=           0           0           0           0           0           1           0           1           2           2
 AtZEff=   5.6000000   5.6000000  25.2200000   5.6000000   3.6000000   1.0000000   3.6000000   1.0000000   4.5500000   4.5500000
 NQMom=    0.0000000   0.0000000   0.0000000   0.0000000   0.0000000   0.0000000   0.0000000   0.0000000   2.0440000   2.0440000
 NMagM=    0.0000000   0.0000000   0.0000000   0.0000000   0.0000000   2.7928460   0.0000000   2.7928460   0.4037610   0.4037610
 AtZNuc=   8.0000000   8.0000000  26.0000000   8.0000000   6.0000000   1.0000000   6.0000000   1.0000000   7.0000000   7.0000000

  Atom        31
 IAtWgt=          16
 AtmWgt=  15.9949146
 NucSpn=           0
 AtZEff=   5.6000000
 NQMom=    0.0000000
 NMagM=    0.0000000
 AtZNuc=   8.0000000
 Leave Link  101 at Mon Jan 23 04:45:27 2023, MaxMem= 14763950080 cpu:               0.1 elap:               0.1
 (Enter /software/commercial/gaussian/g16/AVX2/g16/l103.exe)

 GradGradGradGradGradGradGradGradGradGradGradGradGradGradGradGradGradGrad
 Berny optimization.
 Initialization pass.
 Trust Radius=3.00D-01 FncErr=1.00D-07 GrdErr=1.00D-07 EigMax=2.50D+02 EigMin=1.00D-04
 Number of steps in this run=      2 maximum allowed number of steps=      2.
 GradGradGradGradGradGradGradGradGradGradGradGradGradGradGradGradGradGrad

 Leave Link  103 at Mon Jan 23 04:45:28 2023, MaxMem= 14763950080 cpu:               0.0 elap:               0.1
 (Enter /software/commercial/gaussian/g16/AVX2/g16/l202.exe)
                          Input orientation:                          
 ---------------------------------------------------------------------
 Center     Atomic      Atomic             Coordinates (Angstroms)
 Number     Number       Type             X           Y           Z
 ---------------------------------------------------------------------
      1          8           0        0.989679    2.540321    1.358430
      2          8           0       -1.187444    1.958685    1.460547
      3          6           0       -0.180015    2.621179    1.802317
      4          1           0       -0.341842    3.368752    2.597484
      5          8           0        2.323172   -1.751258   -1.440705
      6          8           0        2.896338    0.428830   -1.482264
      7          6           0        2.968333   -0.762291   -1.864669
      8          1           0        3.684037   -0.967100   -2.678484
      9          8           0       -1.943795   -0.839586    1.473150
     10          8           0        2.957111    0.470581    1.343816
     11          8           0        2.388727   -1.711165    1.365850
     12          6           0        3.047758   -0.713331    1.744828
     13          1           0        3.796695   -0.901335    2.532397
     14          8           0       -1.248871    1.947948   -1.417608
     15          8           0        0.936488    2.505240   -1.467525
     16          6           0       -0.258886    2.591179   -1.836906
     17          1           0       -0.463094    3.324565   -2.635527
     18         26           0       -1.382471    0.525741    0.031911
     19          8           0       -2.011247   -0.848941   -1.370197
     20         26           0        0.908015   -1.858177   -0.002790
     21          8           0       -0.453959   -2.482350   -1.366919
     22          8           0       -0.382260   -2.468416    1.432047
     23         26           0        1.748955    1.300598   -0.056020
     24          8           0        0.417765   -0.041146   -0.008069
     25          6           0       -1.512554   -1.932790   -1.753770
     26          1           0       -2.074845   -2.474040   -2.534271
     27          6           0       -1.425787   -1.914938    1.853872
     28          1           0       -1.952313   -2.444526    2.666654
     29          7           0       -4.418096    0.050515    0.093843
     30          7           0       -5.115075   -0.828302    0.106438
     31          8           0       -3.696744    0.990223    0.081283
 ---------------------------------------------------------------------
                    Distance matrix (angstroms):
                    1          2          3          4          5
     1  O    0.000000
     2  O    2.255791   0.000000
     3  C    1.253698   1.253243   0.000000
     4  H    1.998625   1.998989   1.103334   0.000000
     5  O    5.294432   5.874127   5.991773   7.044414   0.000000
     6  O    4.020358   5.260976   5.005877   5.981078   2.254558
     7  C    5.021023   5.977563   5.899724   6.923408   1.254606
     8  H    5.988175   7.030159   6.919842   7.927368   1.999739
     9  O    4.476852   2.898715   3.898226   4.641173   5.246780
    10  O    2.855665   4.405158   3.831038   4.566636   3.618288
    11  O    4.475770   5.125014   5.055506   5.897329   2.807606
    12  C    3.869269   5.015718   4.641204   5.373994   3.427818
    13  H    4.593749   5.845530   5.362401   5.946879   4.321941
    14  O    3.615023   2.878830   3.458844   4.354578   5.142388
    15  O    2.826673   3.658335   3.457150   4.347883   4.476761
    16  C    3.430986   3.483599   3.640201   4.502812   5.067619
    17  H    4.321721   4.378143   4.502149   5.234602   5.912263
    18  Fe   3.383088   2.032822   2.995179   3.968348   4.591853
    19  O    5.285646   4.071182   5.045789   6.026470   4.427904
    20  Fe   4.605038   4.593554   4.950439   5.970289   2.020322
    21  O    5.893966   5.315577   6.013743   7.068554   2.872698
    22  O    5.193754   4.499818   5.107052   5.952513   4.010783
    23  Fe   2.028320   3.369791   2.986348   3.961032   3.400133
    24  O    2.976302   2.955140   3.274570   4.358132   2.933855
    25  C    5.996305   5.057777   5.929590   6.957753   3.852759
    26  H    7.048989   6.032835   6.953965   7.967210   4.589211
    27  C    5.092079   3.900829   4.704356   5.444748   4.993568
    28  H    5.934262   4.629037   5.435943   6.032628   5.969153
    29  N    6.086242   3.993257   5.242950   5.821921   7.144642
    30  N    7.084005   5.002718   6.255377   6.826736   7.653301
    31  O    5.098673   3.022726   4.241386   4.821207   6.787603
                    6          7          8          9         10
     6  O    0.000000
     7  C    1.253071   0.000000
     8  H    2.000009   1.102939   0.000000
     9  O    5.811217   5.939361   6.994628   0.000000
    10  O    2.827042   3.437219   4.332926   5.074657   0.000000
    11  O    3.598472   3.416512   4.311392   4.420623   2.254676
    12  C    3.426599   3.610703   4.476041   5.000535   1.253266
    13  H    4.324059   4.476573   5.212514   5.837726   1.999945
    14  O    4.415276   5.032899   5.866933   4.075506   5.243888
    15  O    2.855294   3.868187   4.590489   5.303910   4.015768
    16  C    3.841479   4.654188   5.377383   5.056238   4.995654
    17  H    4.582693   5.391781   5.968159   6.034390   5.973123
    18  Fe   4.539860   4.917880   5.936693   2.063098   4.533885
    19  O    5.072440   5.004820   5.844812   2.844163   5.813053
    20  Fe   3.372340   2.985376   3.957228   3.368790   3.381606
    21  O    4.439906   3.862440   4.597738   3.603370   5.263391
    22  O    5.257038   5.000567   5.973708   2.256805   4.449370
    23  Fe   2.027471   3.002266   3.970430   4.533779   2.026847
    24  O    2.921892   3.236110   4.319380   2.899739   2.921941
    25  C    5.008922   4.632571   5.365837   3.434251   5.945514
    26  H    5.852012   5.367690   5.954527   4.329900   7.002210
    27  C    5.941702   5.870642   6.895720   1.252862   5.016040
    28  H    6.998508   6.897504   7.907068   2.000088   5.860904
    29  N    7.491874   7.684774   8.623566   2.969332   7.492167
    30  N    8.263601   8.320523   9.230353   3.453266   8.269122
    31  O    6.799160   7.161096   8.119320   2.891078   6.792482
                   11         12         13         14         15
    11  O    0.000000
    12  C    1.254440   0.000000
    13  H    1.999758   1.102958   0.000000
    14  O    5.862496   5.961915   7.012752   0.000000
    15  O    5.283472   5.013569   5.982049   2.255850   0.000000
    16  C    5.981443   5.889185   6.909139   1.252848   1.254092
    17  H    7.035799   6.915070   7.919057   1.998962   1.998587
    18  Fe   4.583130   4.908800   5.925601   2.035099   3.397690
    19  O    5.252537   5.942668   6.997512   2.899319   4.466446
    20  Fe   2.021706   2.990542   3.960706   4.597875   4.602789
    21  O    4.017911   5.007436   5.980998   4.501332   5.178756
    22  O    2.873357   3.865641   4.596758   5.326896   5.906257
    23  Fe   3.391421   2.997641   3.967575   3.355584   2.025737
    24  O    2.925971   3.231307   4.314054   2.953129   2.980464
    25  C    5.000113   5.875688   6.900960   3.904185   5.076992
    26  H    5.976319   6.903032   7.913249   4.634992   5.916021
    27  C    3.851000   4.633396   5.363032   5.065152   6.012487
    28  H    4.590701   5.370988   5.954037   6.039027   7.066597
    29  N    7.145233   7.684282   8.621795   3.991080   6.093858
    30  N    7.659804   8.326426   9.236355   4.997781   7.085991
    31  O    6.780897   7.152467   8.107872   3.025887   5.114775
                   16         17         18         19         20
    16  C    0.000000
    17  H    1.103337   0.000000
    18  Fe   3.003490   3.974153   0.000000
    19  O    3.888831   4.627741   2.061799   0.000000
    20  Fe   4.952011   5.972609   3.306146   3.377936   0.000000
    21  O    5.098983   5.943879   3.444920   2.256808   2.026182
    22  O    6.025012   7.078864   3.453372   3.623378   2.023847
    23  Fe   2.978016   3.955181   3.227067   4.526223   3.269231
    24  O    3.275917   4.359754   1.887806   2.899659   1.882014
    25  C    4.695199   5.433106   3.041374   1.253217   2.988419
    26  H    5.425907   6.019287   4.007912   2.000015   3.960447
    27  C    5.940420   6.966626   3.046036   3.445829   2.982792
    28  H    6.964773   7.975795   4.011119   4.341144   3.956161
    29  N    5.242307   5.814714   3.073221   2.957255   5.658613
    30  N    6.249161   6.812166   3.971311   3.437241   6.111479
    31  O    4.249868   4.825630   2.360940   2.886212   5.415188
                   21         22         23         24         25
    21  O    0.000000
    22  O    2.799919   0.000000
    23  Fe   4.569680   4.578415   0.000000
    24  O    2.926748   2.933533   1.890672   0.000000
    25  C    1.253911   3.422555   4.896385   3.217440   0.000000
    26  H    1.997511   4.312372   5.917015   4.302764   1.103769
    27  C    3.411730   1.254282   4.905746   3.221274   3.608729
    28  H    4.303046   1.997472   5.927756   4.306698   4.471623
    29  N    4.925810   4.942042   6.294257   4.837803   3.973581
    30  N    5.160683   5.181384   7.188429   5.589727   4.202193
    31  O    4.967062   4.977204   5.456264   4.242746   4.084374
                   26         27         28         29         30
    26  H    0.000000
    27  C    4.470981   0.000000
    28  H    5.202452   1.103770   0.000000
    29  N    4.332572   3.989314   4.350250   0.000000
    30  N    4.350264   4.224351   4.378349   1.121721   0.000000
    31  O    4.633875   4.091367   4.639470   1.184718   2.306367
                   31
    31  O    0.000000
 Symmetry turned off by external request.
 Stoichiometry    C6H6Fe3N2O14(15)
 Framework group  C1[X(C6H6Fe3N2O14)]
 Deg. of freedom    87
 Full point group                 C1      NOp   1
 Rotational constants (GHZ):           0.2607263           0.1795857           0.1473657
 Leave Link  202 at Mon Jan 23 04:45:28 2023, MaxMem= 14763950080 cpu:               0.0 elap:               0.0
 (Enter /software/commercial/gaussian/g16/AVX2/g16/l301.exe)
 General basis read from cards:  (5D, 7F)
 Centers:       4      8     13     17     26     28
 S 3 1.00
     Exponent=  3.4061341000D+01 Coefficients=  6.0251978000D-03
     Exponent=  5.1235746000D+00 Coefficients=  4.5021094000D-02
     Exponent=  1.1646626000D+00 Coefficients=  2.0189726000D-01
 S 1 1.00
     Exponent=  3.2723041000D-01 Coefficients=  1.0000000000D+00
 S 1 1.00
     Exponent=  1.0307241000D-01 Coefficients=  1.0000000000D+00
 P 1 1.00
     Exponent=  8.0000000000D-01 Coefficients=  1.0000000000D+00
 ****
 Centers:       1      2      5      6      9     10     11     14     15     19
 Centers:      21     22     24     31
 S 6 1.00
     Exponent=  2.7032382631D+04 Coefficients=  2.1726302465D-04
     Exponent=  4.0523871392D+03 Coefficients=  1.6838662199D-03
     Exponent=  9.2232722710D+02 Coefficients=  8.7395616265D-03
     Exponent=  2.6124070989D+02 Coefficients=  3.5239968808D-02
     Exponent=  8.5354641351D+01 Coefficients=  1.1153519115D-01
     Exponent=  3.1035035245D+01 Coefficients=  2.5588953961D-01
 S 2 1.00
     Exponent=  1.2260860728D+01 Coefficients=  3.9768730901D-01
     Exponent=  4.9987076005D+00 Coefficients=  2.4627849430D-01
 S 1 1.00
     Exponent=  1.1703108158D+00 Coefficients=  1.0000000000D+00
 S 1 1.00
     Exponent=  4.6474740994D-01 Coefficients=  1.0000000000D+00
 S 1 1.00
     Exponent=  1.8504536357D-01 Coefficients=  1.0000000000D+00
 P 4 1.00
     Exponent=  6.3274954801D+01 Coefficients=  6.0685103418D-03
     Exponent=  1.4627049379D+01 Coefficients=  4.1912575824D-02
     Exponent=  4.4501223456D+00 Coefficients=  1.6153841088D-01
     Exponent=  1.5275799647D+00 Coefficients=  3.5706951311D-01
 P 1 1.00
     Exponent=  5.2935117943D-01 Coefficients=  4.4794207502D-01
 P 1 1.00
     Exponent=  1.7478421270D-01 Coefficients=  2.4446069663D-01
 D 1 1.00
     Exponent=  2.3140000000D+00 Coefficients=  1.0000000000D+00
 D 1 1.00
     Exponent=  6.4500000000D-01 Coefficients=  1.0000000000D+00
 F 1 1.00
     Exponent=  1.4280000000D+00 Coefficients=  1.0000000000D+00
 ****
 Centers:       3      7     12     16     25     27
 S 6 1.00
     Exponent=  1.3575349682D+04 Coefficients=  2.2245814352D-04
     Exponent=  2.0352333680D+03 Coefficients=  1.7232738252D-03
     Exponent=  4.6322562359D+02 Coefficients=  8.9255715314D-03
     Exponent=  1.3120019598D+02 Coefficients=  3.5727984502D-02
     Exponent=  4.2853015891D+01 Coefficients=  1.1076259931D-01
     Exponent=  1.5584185766D+01 Coefficients=  2.4295627626D-01
 S 2 1.00
     Exponent=  6.2067138508D+00 Coefficients=  4.1440263448D-01
     Exponent=  2.5764896527D+00 Coefficients=  2.3744968655D-01
 S 1 1.00
     Exponent=  5.7696339419D-01 Coefficients=  1.0000000000D+00
 S 1 1.00
     Exponent=  2.2972831358D-01 Coefficients=  1.0000000000D+00
 S 1 1.00
     Exponent=  9.5164440028D-02 Coefficients=  1.0000000000D+00
 P 4 1.00
     Exponent=  3.4697232244D+01 Coefficients=  5.3333657805D-03
     Exponent=  7.9582622826D+00 Coefficients=  3.5864109092D-02
     Exponent=  2.3780826883D+00 Coefficients=  1.4215873329D-01
     Exponent=  8.1433208183D-01 Coefficients=  3.4270471845D-01
 P 1 1.00
     Exponent=  2.8887547253D-01 Coefficients=  4.6445822433D-01
 P 1 1.00
     Exponent=  1.0056823671D-01 Coefficients=  2.4955789874D-01
 D 1 1.00
     Exponent=  1.0970000000D+00 Coefficients=  1.0000000000D+00
 D 1 1.00
     Exponent=  3.1800000000D-01 Coefficients=  1.0000000000D+00
 F 1 1.00
     Exponent=  7.6100000000D-01 Coefficients=  1.0000000000D+00
 ****
 Centers:      18     20     23
 S 8 1.00
     Exponent=  3.0078484637D+05 Coefficients=  2.2806273096D-04
     Exponent=  4.5088970557D+04 Coefficients=  1.7681788761D-03
     Exponent=  1.0262516317D+04 Coefficients=  9.1927083490D-03
     Exponent=  2.9052897293D+03 Coefficients=  3.7355495807D-02
     Exponent=  9.4611487137D+02 Coefficients=  1.2151108426D-01
     Exponent=  3.3987832894D+02 Coefficients=  2.8818881468D-01
     Exponent=  1.3194425588D+02 Coefficients=  4.1126612677D-01
     Exponent=  5.2111494077D+01 Coefficients=  2.1518583573D-01
 S 4 1.00
     Exponent=  3.2948839267D+02 Coefficients= -2.4745216477D-02
     Exponent=  1.0192332739D+02 Coefficients= -1.1683089050D-01
     Exponent=  1.6240462745D+01 Coefficients=  5.5293621136D-01
     Exponent=  6.8840675801D+00 Coefficients=  5.3601640182D-01
 S 2 1.00
     Exponent=  1.0470693782D+01 Coefficients= -2.2912708577D-01
     Exponent=  1.7360039648D+00 Coefficients=  7.1159319984D-01
 S 1 1.00
     Exponent=  7.2577288979D-01 Coefficients=  1.0000000000D+00
 S 1 1.00
     Exponent=  1.1595528203D-01 Coefficients=  1.0000000000D+00
 S 1 1.00
     Exponent=  4.1968227746D-02 Coefficients=  1.0000000000D+00
 P 6 1.00
     Exponent=  1.5853959970D+03 Coefficients=  2.3793960179D-03
     Exponent=  3.7538006499D+02 Coefficients=  1.9253154755D-02
     Exponent=  1.2031816501D+02 Coefficients=  9.0021836536D-02
     Exponent=  4.4788749031D+01 Coefficients=  2.5798172356D-01
     Exponent=  1.7829278584D+01 Coefficients=  4.1492649744D-01
     Exponent=  7.2247153786D+00 Coefficients=  2.4207474784D-01
 P 3 1.00
     Exponent=  2.8143219756D+01 Coefficients= -2.9041755152D-02
     Exponent=  3.8743241412D+00 Coefficients=  5.5312260343D-01
     Exponent=  1.5410752281D+00 Coefficients=  9.6771136842D-01
 P 1 1.00
     Exponent=  5.8285615250D-01 Coefficients=  1.0000000000D+00
 P 1 1.00
     Exponent=  1.3491500000D-01 Coefficients=  1.0000000000D+00
 D 4 1.00
     Exponent=  6.1996675034D+01 Coefficients=  1.1971972255D-02
     Exponent=  1.7873732552D+01 Coefficients=  7.3210135410D-02
     Exponent=  6.2744782934D+00 Coefficients=  2.3103094314D-01
     Exponent=  2.3552337175D+00 Coefficients=  3.9910706494D-01
 D 1 1.00
     Exponent=  8.5432239901D-01 Coefficients=  4.1391589765D-01
 D 1 1.00
     Exponent=  2.7869254413D-01 Coefficients=  2.1909269782D-01
 D 1 1.00
     Exponent=  9.1000000000D-02 Coefficients=  1.0000000000D+00
 F 1 1.00
     Exponent=  1.5980000000D+00 Coefficients=  1.0000000000D+00
 ****
 Centers:      29     30
 S 6 1.00
     Exponent=  1.9730800647D+04 Coefficients=  2.1887984991D-04
     Exponent=  2.9578958745D+03 Coefficients=  1.6960708803D-03
     Exponent=  6.7322133595D+02 Coefficients=  8.7954603538D-03
     Exponent=  1.9068249494D+02 Coefficients=  3.5359382605D-02
     Exponent=  6.2295441898D+01 Coefficients=  1.1095789217D-01
     Exponent=  2.2654161182D+01 Coefficients=  2.4982972552D-01
 S 2 1.00
     Exponent=  8.9791477428D+00 Coefficients=  4.0623896148D-01
     Exponent=  3.6863002370D+00 Coefficients=  2.4338217176D-01
 S 1 1.00
     Exponent=  8.4660076805D-01 Coefficients=  1.0000000000D+00
 S 1 1.00
     Exponent=  3.3647133771D-01 Coefficients=  1.0000000000D+00
 S 1 1.00
     Exponent=  1.3647653675D-01 Coefficients=  1.0000000000D+00
 P 4 1.00
     Exponent=  4.9200380510D+01 Coefficients=  5.5552416751D-03
     Exponent=  1.1346790537D+01 Coefficients=  3.8052379723D-02
     Exponent=  3.4273972411D+00 Coefficients=  1.4953671029D-01
     Exponent=  1.1785525134D+00 Coefficients=  3.4949305230D-01
 P 1 1.00
     Exponent=  4.1642204972D-01 Coefficients=  4.5843153697D-01
 P 1 1.00
     Exponent=  1.4260826011D-01 Coefficients=  2.4428771672D-01
 D 1 1.00
     Exponent=  1.6540000000D+00 Coefficients=  1.0000000000D+00
 D 1 1.00
     Exponent=  4.6900000000D-01 Coefficients=  1.0000000000D+00
 F 1 1.00
     Exponent=  1.0930000000D+00 Coefficients=  1.0000000000D+00
 ****
 Ernie: Thresh=  0.10000D-02 Tol=  0.10000D-05 Strict=F.
   853 basis functions,  1476 primitive gaussians,   984 cartesian basis functions
   130 alpha electrons      116 beta electrons
       nuclear repulsion energy      4446.9292791885 Hartrees.
 IExCor= 4134 DFT=T Ex+Corr=M06L ExCW=0 ScaHFX=  0.000000
 ScaDFX=  1.000000  1.000000  1.000000  1.000000 ScalE2=  1.000000  1.000000
 IRadAn=      5 IRanWt=     -1 IRanGd=            0 ICorTp=0 IEmpDi=  4
 NAtoms=   31 NActive=   31 NUniq=   31 SFac= 1.00D+00 NAtFMM=   60 NAOKFM=F Big=F
 Integral buffers will be    131072 words long.
 Raffenetti 2 integral format.
 Two-electron integral symmetry is turned off.
 Leave Link  301 at Mon Jan 23 04:45:28 2023, MaxMem= 14763950080 cpu:               0.1 elap:               0.1
 (Enter /software/commercial/gaussian/g16/AVX2/g16/l302.exe)
 NPDir=0 NMtPBC=     1 NCelOv=     1 NCel=       1 NClECP=     1 NCelD=      1
         NCelK=      1 NCelE2=     1 NClLst=     1 CellRange=     0.0.
 One-electron integrals computed using PRISM.
 NBasis=   853 RedAO= T EigKep=  1.11D-04  NBF=   853
 NBsUse=   853 1.00D-06 EigRej= -1.00D+00 NBFU=   853
 Precomputing XC quadrature grid using
 IXCGrd= 4 IRadAn=           5 IRanWt=          -1 IRanGd=           0 AccXCQ= 0.00D+00.
 Generated NRdTot=       0 NPtTot=           0 NUsed=           0 NTot=          32
 NSgBfM=   968   968   968   968   968 MxSgAt=    31 MxSgA2=    31.
 Leave Link  302 at Mon Jan 23 04:45:30 2023, MaxMem= 14763950080 cpu:               2.3 elap:               1.5
 (Enter /software/commercial/gaussian/g16/AVX2/g16/l303.exe)
 DipDrv:  MaxL=1.
 Leave Link  303 at Mon Jan 23 04:45:30 2023, MaxMem= 14763950080 cpu:               0.2 elap:               0.2
 (Enter /software/commercial/gaussian/g16/AVX2/g16/l401.exe)
 Initial guess from the checkpoint file:  "/scratch1/svicchi/G09-56282.pbs02/02-freq/FeFeFe-AO-0xH2O-freq.chk"
 B after Tr=     0.000000    0.000000    0.000000
         Rot=    1.000000    0.000000    0.000000    0.000000 Ang=   0.00 deg.
 Guess basis will be translated and rotated to current coordinates.
 JPrj=2 DoOrth=T DoCkMO=T.
 Initial guess <Sx>= 0.0000 <Sy>= 0.0000 <Sz>= 7.0000 <S**2>=56.0606 S= 7.0040
 Leave Link  401 at Mon Jan 23 04:45:32 2023, MaxMem= 14763950080 cpu:               2.0 elap:               1.8
 (Enter /software/commercial/gaussian/g16/AVX2/g16/l502.exe)
 Two-electron integral symmetry not used.
 UHF open shell SCF:
 Using DIIS extrapolation, IDIIS=  1040.
 NGot= 14763950080 LenX= 14762000842 LenY= 14761031602
 Requested convergence on RMS density matrix=1.00D-08 within 150 cycles.
 Requested convergence on MAX density matrix=1.00D-06.
 Requested convergence on             energy=1.00D-06.
 No special actions if energy rises.
 Fock matrices will be formed incrementally for  20 cycles.

 Cycle   1  Pass 1  IDiag  1:
 FoFJK:  IHMeth= 1 ICntrl=     500 DoSepK=F KAlg= 0 I1Cent=           0 FoldK=F
 IRaf= 780000000 NMat=       1 IRICut=       1 DoRegI=T DoRafI=F ISym2E= 0 IDoP0=0 IntGTp=1.
 FoFCou: FMM=F IPFlag=           0 FMFlag=      100000 FMFlg1=           0
         NFxFlg=           0 DoJE=T BraDBF=F KetDBF=F FulRan=T
         wScrn=  0.000000 ICntrl=       500 IOpCl=  0 I1Cent=           0 NGrid=           0
         NMat0=    1 NMatS0=      1 NMatT0=    0 NMatD0=    1 NMtDS0=    0 NMtDT0=    0
 Symmetry not used in FoFCou.
 E= -5186.81407957763    
 DIIS: error= 3.33D-08 at cycle   1 NSaved=   1.
 NSaved= 1 IEnMin= 1 EnMin= -5186.81407957763     IErMin= 1 ErrMin= 3.33D-08
 ErrMax= 3.33D-08  0.00D+00 EMaxC= 1.00D-01 BMatC= 2.51D-12 BMatP= 2.51D-12
 IDIUse=1 WtCom= 1.00D+00 WtEn= 0.00D+00
 Coeff-Com:  0.100D+01
 Coeff:      0.100D+01
 Gap=     0.157 Goal=   None    Shift=    0.000
 Gap=     0.013 Goal=   None    Shift=    0.000
 RMSDP=1.42D-08 MaxDP=3.38D-06              OVMax= 1.97D-05

 Cycle   2  Pass 1  IDiag  1:
 RMSU=  1.42D-08    CP:  1.00D+00
 E= -5186.81407957771     Delta-E=       -0.000000000080 Rises=F Damp=F
 DIIS: error= 6.94D-07 at cycle   2 NSaved=   2.
 NSaved= 2 IEnMin= 2 EnMin= -5186.81407957771     IErMin= 1 ErrMin= 3.33D-08
 ErrMax= 6.94D-07  0.00D+00 EMaxC= 1.00D-01 BMatC= 8.28D-10 BMatP= 2.51D-12
 IDIUse=1 WtCom= 1.00D+00 WtEn= 0.00D+00
 Coeff-Com:  0.952D+00 0.484D-01
 Coeff:      0.952D+00 0.484D-01
 Gap=     0.157 Goal=   None    Shift=    0.000
 Gap=     0.013 Goal=   None    Shift=    0.000
 RMSDP=1.46D-08 MaxDP=3.50D-06 DE=-8.00D-11 OVMax= 2.04D-05

 Cycle   3  Pass 1  IDiag  1:
 RMSU=  2.01D-09    CP:  1.00D+00 -2.12D-02
 E= -5186.81407957767     Delta-E=        0.000000000033 Rises=F Damp=F
 DIIS: error= 5.49D-08 at cycle   3 NSaved=   3.
 NSaved= 3 IEnMin= 2 EnMin= -5186.81407957771     IErMin= 1 ErrMin= 3.33D-08
 ErrMax= 5.49D-08  0.00D+00 EMaxC= 1.00D-01 BMatC= 1.04D-11 BMatP= 2.51D-12
 IDIUse=1 WtCom= 1.00D+00 WtEn= 0.00D+00
 Coeff-Com:  0.809D+00 0.505D-01 0.141D+00
 Coeff:      0.809D+00 0.505D-01 0.141D+00
 Gap=     0.157 Goal=   None    Shift=    0.000
 Gap=     0.013 Goal=   None    Shift=    0.000
 RMSDP=2.43D-09 MaxDP=4.78D-07 DE= 3.27D-11 OVMax= 3.35D-06

 SCF Done:  E(UM06L) =  -5186.81407958     A.U. after    3 cycles
            NFock=  3  Conv=0.24D-08     -V/T= 2.0017
 <Sx>= 0.0000 <Sy>= 0.0000 <Sz>= 7.0000 <S**2>=56.0606 S= 7.0040
 <L.S>=  0.00000000000    
 KE= 5.178242211823D+03 PE=-2.120389868968D+04 EE= 6.391913119089D+03
 Annihilation of the first spin contaminant:
 S**2 before annihilation    56.0606,   after    56.0003
 Leave Link  502 at Mon Jan 23 04:53:24 2023, MaxMem= 14763950080 cpu:             935.8 elap:             471.7
 (Enter /software/commercial/gaussian/g16/AVX2/g16/l508.exe)
 QCSCF skips out because SCF is already converged.
 Leave Link  508 at Mon Jan 23 04:53:25 2023, MaxMem= 14763950080 cpu:               0.0 elap:               0.0
 (Enter /software/commercial/gaussian/g16/AVX2/g16/l801.exe)
 DoSCS=F DFT=T ScalE2(SS,OS)=  1.000000  1.000000
 Range of M.O.s used for correlation:     1   853
 NBasis=   853 NAE=   130 NBE=   116 NFC=     0 NFV=     0
 NROrb=    853 NOA=   130 NOB=   116 NVA=   723 NVB=   737

 **** Warning!!: The largest alpha MO coefficient is  0.26662912D+02


 **** Warning!!: The largest beta MO coefficient is  0.22823908D+02


 **** Warning!!: The smallest beta delta epsilon is  0.12837863D-01

 Leave Link  801 at Mon Jan 23 04:53:25 2023, MaxMem= 14763950080 cpu:               0.1 elap:               0.1
 (Enter /software/commercial/gaussian/g16/AVX2/g16/l1002.exe)
 Minotr:  UHF open shell wavefunction.
          Direct CPHF calculation.
          Differentiating once with respect to electric field.
                with respect to dipole field.
          Electric field/nuclear overlap derivatives assumed to be zero.
          Requested convergence is 1.0D-08 RMS, and 1.0D-07 maximum.
          Secondary convergence is 1.0D-12 RMS, and 1.0D-12 maximum.
          NewPWx=F KeepS1=T KeepF1=T KeepIn=T MapXYZ=F SortEE=F KeepMc=T.
         9519 words used for storage of precomputed grid.
 Two-electron integral symmetry not used.
          MDV=   14763950080 using IRadAn=       1.
          Solving linear equations simultaneously, MaxMat=     384.
          There are     3 degrees of freedom in the 1st order CPHF.  IDoFFX=0 NUNeed=     3.
      3 vectors produced by pass  0 Test12= 5.98D-12 3.33D-08 XBig12= 2.34D+04 1.25D+02.
 AX will form     3 AO Fock derivatives at one time.
 FoFJK:  IHMeth= 1 ICntrl=     500 DoSepK=F KAlg= 0 I1Cent=           0 FoldK=F
 IRaf= 780000000 NMat=       3 IRICut=       1 DoRegI=T DoRafI=F ISym2E= 0 IDoP0=0 IntGTp=1.
 FoFCou: FMM=F IPFlag=           0 FMFlag=      100000 FMFlg1=           0
         NFxFlg=           0 DoJE=T BraDBF=F KetDBF=F FulRan=T
         wScrn=  0.000000 ICntrl=       500 IOpCl=  0 I1Cent=           0 NGrid=           0
         NMat0=    3 NMatS0=      3 NMatT0=    0 NMatD0=    3 NMtDS0=    0 NMtDT0=    0
 Symmetry not used in FoFCou.
      3 vectors produced by pass  1 Test12= 5.98D-12 3.33D-08 XBig12= 2.38D+05 1.01D+02.
      3 vectors produced by pass  2 Test12= 5.98D-12 3.33D-08 XBig12= 2.31D+05 1.15D+02.
      3 vectors produced by pass  3 Test12= 5.98D-12 3.33D-08 XBig12= 2.34D+05 1.26D+02.
      3 vectors produced by pass  4 Test12= 5.98D-12 3.33D-08 XBig12= 2.27D+05 1.51D+02.
      3 vectors produced by pass  5 Test12= 5.98D-12 3.33D-08 XBig12= 1.56D+05 1.09D+02.
      3 vectors produced by pass  6 Test12= 5.98D-12 3.33D-08 XBig12= 1.77D+05 1.70D+02.
      3 vectors produced by pass  7 Test12= 5.98D-12 3.33D-08 XBig12= 1.27D+05 9.26D+01.
      3 vectors produced by pass  8 Test12= 5.98D-12 3.33D-08 XBig12= 8.72D+04 7.33D+01.
      3 vectors produced by pass  9 Test12= 5.98D-12 3.33D-08 XBig12= 2.46D+04 2.64D+01.
      3 vectors produced by pass 10 Test12= 5.98D-12 3.33D-08 XBig12= 8.81D+03 1.87D+01.
      3 vectors produced by pass 11 Test12= 5.98D-12 3.33D-08 XBig12= 8.91D+03 2.26D+01.
      3 vectors produced by pass 12 Test12= 5.98D-12 3.33D-08 XBig12= 3.99D+03 2.13D+01.
      3 vectors produced by pass 13 Test12= 5.98D-12 3.33D-08 XBig12= 1.10D+03 1.16D+01.
      3 vectors produced by pass 14 Test12= 5.98D-12 3.33D-08 XBig12= 2.51D+02 5.64D+00.
      3 vectors produced by pass 15 Test12= 5.98D-12 3.33D-08 XBig12= 5.87D+01 1.38D+00.
      3 vectors produced by pass 16 Test12= 5.98D-12 3.33D-08 XBig12= 2.65D+01 6.13D-01.
      3 vectors produced by pass 17 Test12= 5.98D-12 3.33D-08 XBig12= 4.10D+00 2.71D-01.
      3 vectors produced by pass 18 Test12= 5.98D-12 3.33D-08 XBig12= 1.42D+00 1.76D-01.
      3 vectors produced by pass 19 Test12= 5.98D-12 3.33D-08 XBig12= 2.59D-01 7.12D-02.
      3 vectors produced by pass 20 Test12= 5.98D-12 3.33D-08 XBig12= 2.88D-02 1.88D-02.
      3 vectors produced by pass 21 Test12= 5.98D-12 3.33D-08 XBig12= 2.75D-03 7.64D-03.
      3 vectors produced by pass 22 Test12= 5.98D-12 3.33D-08 XBig12= 3.61D-04 4.33D-03.
      3 vectors produced by pass 23 Test12= 5.98D-12 3.33D-08 XBig12= 4.45D-05 9.35D-04.
      3 vectors produced by pass 24 Test12= 5.98D-12 3.33D-08 XBig12= 3.25D-06 2.94D-04.
      3 vectors produced by pass 25 Test12= 5.98D-12 3.33D-08 XBig12= 2.96D-07 8.09D-05.
      3 vectors produced by pass 26 Test12= 5.98D-12 3.33D-08 XBig12= 2.36D-08 1.73D-05.
      3 vectors produced by pass 27 Test12= 5.98D-12 3.33D-08 XBig12= 2.70D-09 7.93D-06.
      2 vectors produced by pass 28 Test12= 5.98D-12 3.33D-08 XBig12= 2.61D-10 1.81D-06.
      2 vectors produced by pass 29 Test12= 5.98D-12 3.33D-08 XBig12= 1.81D-11 4.64D-07.
      2 vectors produced by pass 30 Test12= 5.98D-12 3.33D-08 XBig12= 1.30D-12 2.50D-07.
      2 vectors produced by pass 31 Test12= 5.98D-12 3.33D-08 XBig12= 1.35D-13 7.38D-08.
 InvSVY:  IOpt=1 It=  1 EMax= 1.14D-13
 Solved reduced A of dimension    92 with     3 vectors.
 End of Minotr F.D. properties file   721 does not exist.
 End of Minotr F.D. properties file   722 does not exist.
 End of Minotr F.D. properties file   788 does not exist.
 Leave Link 1002 at Mon Jan 23 07:03:00 2023, MaxMem= 14763950080 cpu:           15482.5 elap:            7774.9
 (Enter /software/commercial/gaussian/g16/AVX2/g16/l1101.exe)
 Using compressed storage, NAtomX=    31.
 Will process     32 centers per pass.
 Leave Link 1101 at Mon Jan 23 07:03:03 2023, MaxMem= 14763950080 cpu:               3.2 elap:               2.7
 (Enter /software/commercial/gaussian/g16/AVX2/g16/l1102.exe)
 Symmetrizing basis deriv contribution to polar:
 IMax=3 JMax=2 DiffMx= 0.00D+00
 Leave Link 1102 at Mon Jan 23 07:03:04 2023, MaxMem= 14763950080 cpu:               0.2 elap:               0.2
 (Enter /software/commercial/gaussian/g16/AVX2/g16/l1110.exe)
 Forming Gx(P) for the SCF density, NAtomX=    31.
 Integral derivatives from FoFJK, PRISM(SPDF).
 Do as many integral derivatives as possible in FoFJK.
 G2DrvN: MDV=   14763946689.
 G2DrvN: will do    32 centers at a time, making    1 passes.
 PxScal for G2LodP:  IOpCl= 1 ISclPx=1 IMOff=     1 NMtTot=     4 NTT=  364231 ScalPx= 2.45D+00
 Calling FoFCou, ICntrl=  3507 FMM=F I1Cent=   0 AccDes= 0.00D+00.
 FoFJK:  IHMeth= 1 ICntrl=    3507 DoSepK=F KAlg= 0 I1Cent=           0 FoldK=F
 IRaf=         0 NMat=       1 IRICut=       1 DoRegI=T DoRafI=F ISym2E= 0 IDoP0=0 IntGTp=1.
 FoFCou: FMM=F IPFlag=           0 FMFlag=      100000 FMFlg1=           0
         NFxFlg=           0 DoJE=F BraDBF=F KetDBF=F FulRan=T
         wScrn=  0.000000 ICntrl=      3507 IOpCl=  0 I1Cent=           0 NGrid=           0
         NMat0=    1 NMatS0=      1 NMatT0=    0 NMatD0=    4 NMtDS0=    3 NMtDT0=    0
 Symmetry not used in FoFCou.
 End of G2Drv F.D. properties file   721 does not exist.
 End of G2Drv F.D. properties file   722 does not exist.
 End of G2Drv F.D. properties file   788 does not exist.
 Leave Link 1110 at Mon Jan 23 09:01:08 2023, MaxMem= 14763950080 cpu:           14124.1 elap:            7083.7
 (Enter /software/commercial/gaussian/g16/AVX2/g16/l1002.exe)
 Minotr:  UHF open shell wavefunction.
          IDoAtm=1111111111111111111111111111111
          Direct CPHF calculation.
          Differentiating once with respect to electric field.
                with respect to dipole field.
          Differentiating once with respect to nuclear coordinates.
          Requested convergence is 1.0D-08 RMS, and 1.0D-07 maximum.
          Secondary convergence is 1.0D-12 RMS, and 1.0D-12 maximum.
          NewPWx=T KeepS1=F KeepF1=F KeepIn=T MapXYZ=F SortEE=F KeepMc=T.
         9519 words used for storage of precomputed grid.
 Two-electron integral symmetry not used.
          MDV=   14763950080 using IRadAn=       1.
          Solving linear equations simultaneously, MaxMat=     384.
 FoF2E skips out because all densities are zero.
 CalDSu exits because no D1Ps are significant.
 FoFJK:  IHMeth= 1 ICntrl=     500 DoSepK=F KAlg= 0 I1Cent=           0 FoldK=F
 IRaf= 780000000 NMat=      93 IRICut=       1 DoRegI=T DoRafI=F ISym2E= 0 IDoP0=3 IntGTp=3.
 FoFCou: FMM=F IPFlag=           0 FMFlag=      100000 FMFlg1=           0
         NFxFlg=           0 DoJE=F BraDBF=F KetDBF=F FulRan=T
         wScrn=  0.000000 ICntrl=       500 IOpCl=  0 I1Cent=           0 NGrid=           0
         NMat0=   93 NMatS0=     93 NMatT0=    0 NMatD0=   93 NMtDS0=    0 NMtDT0=    0
 Symmetry not used in FoFCou.
          There are    96 degrees of freedom in the 1st order CPHF.  IDoFFX=5 NUNeed=    96.
 Will reuse    3 saved solutions.
     90 vectors produced by pass  0 Test12= 1.87D-13 1.04D-09 XBig12= 1.46D+00 7.78D-01.
 AX will form    90 AO Fock derivatives at one time.
     90 vectors produced by pass  1 Test12= 1.87D-13 1.04D-09 XBig12= 5.18D+00 4.74D-01.
     90 vectors produced by pass  2 Test12= 1.87D-13 1.04D-09 XBig12= 9.48D-02 4.17D-02.
     90 vectors produced by pass  3 Test12= 1.87D-13 1.04D-09 XBig12= 3.62D-03 4.75D-03.
     90 vectors produced by pass  4 Test12= 1.87D-13 1.04D-09 XBig12= 6.54D-05 6.60D-04.
     90 vectors produced by pass  5 Test12= 1.87D-13 1.04D-09 XBig12= 1.19D-06 1.00D-04.
     90 vectors produced by pass  6 Test12= 1.87D-13 1.04D-09 XBig12= 1.07D-08 7.88D-06.
     89 vectors produced by pass  7 Test12= 1.87D-13 1.04D-09 XBig12= 1.20D-10 6.77D-07.
     38 vectors produced by pass  8 Test12= 1.87D-13 1.04D-09 XBig12= 1.00D-12 5.22D-08.
      2 vectors produced by pass  9 Test12= 1.87D-13 1.04D-09 XBig12= 6.57D-15 3.83D-09.
 InvSVY:  IOpt=1 It=  1 EMax= 4.88D-15
 Solved reduced A of dimension   759 with    96 vectors.
 FullF1:  Do perturbations      1 to       3.
 Isotropic polarizability for W=    0.000000      229.38 Bohr**3.
 FullF1:  Do perturbations      1 to       6.
 End of Minotr F.D. properties file   721 does not exist.
 End of Minotr F.D. properties file   722 does not exist.
 End of Minotr F.D. properties file   788 does not exist.
 Leave Link 1002 at Mon Jan 23 13:40:09 2023, MaxMem= 14763950080 cpu:           33306.5 elap:           16740.6
 (Enter /software/commercial/gaussian/g16/AVX2/g16/l601.exe)
 Copying SCF densities to generalized density rwf, IOpCl= 1 IROHF=0.

 **********************************************************************

            Population analysis using the SCF Density.

 **********************************************************************

 Alpha  occ. eigenvalues -- -255.62596-255.62388-255.62085 -30.07050 -30.06899
 Alpha  occ. eigenvalues --  -30.06523 -25.84708 -25.84640 -25.84303 -25.84072
 Alpha  occ. eigenvalues --  -25.83857 -25.83668 -25.83512 -25.83460 -25.83146
 Alpha  occ. eigenvalues --  -19.09271 -18.98322 -18.98308 -18.98287 -18.98277
 Alpha  occ. eigenvalues --  -18.98275 -18.98270 -18.98238 -18.98233 -18.98222
 Alpha  occ. eigenvalues --  -18.98220 -18.98219 -18.98218 -18.96659 -14.40982
 Alpha  occ. eigenvalues --  -14.28422 -10.18087 -10.18080 -10.18078 -10.18070
 Alpha  occ. eigenvalues --  -10.17915 -10.17915  -3.63997  -3.63811  -3.63441
 Alpha  occ. eigenvalues --   -2.39216  -2.39156  -2.38855  -2.37822  -2.37538
 Alpha  occ. eigenvalues --   -2.37113  -2.37058  -2.36849  -2.36489  -1.23384
 Alpha  occ. eigenvalues --   -1.07024  -1.06773  -1.06741  -1.06506  -1.06461
 Alpha  occ. eigenvalues --   -1.06402  -1.06367  -0.99245  -0.99216  -0.98877
 Alpha  occ. eigenvalues --   -0.98787  -0.98758  -0.98666  -0.94354  -0.61619
 Alpha  occ. eigenvalues --   -0.59799  -0.58678  -0.58519  -0.58343  -0.58314
 Alpha  occ. eigenvalues --   -0.58139  -0.55086  -0.54555  -0.49721  -0.49643
 Alpha  occ. eigenvalues --   -0.49028  -0.48129  -0.48007  -0.47893  -0.47680
 Alpha  occ. eigenvalues --   -0.47663  -0.47653  -0.47141  -0.46804  -0.46688
 Alpha  occ. eigenvalues --   -0.45986  -0.44322  -0.44081  -0.43960  -0.42798
 Alpha  occ. eigenvalues --   -0.42683  -0.42182  -0.40771  -0.40699  -0.39250
 Alpha  occ. eigenvalues --   -0.38081  -0.37888  -0.37579  -0.37554  -0.37449
 Alpha  occ. eigenvalues --   -0.37050  -0.36913  -0.36379  -0.36329  -0.36134
 Alpha  occ. eigenvalues --   -0.34727  -0.34237  -0.33619  -0.33098  -0.33069
 Alpha  occ. eigenvalues --   -0.32864  -0.29927  -0.29829  -0.29291  -0.29234
 Alpha  occ. eigenvalues --   -0.29131  -0.29034  -0.28996  -0.28765  -0.28653
 Alpha  occ. eigenvalues --   -0.28160  -0.28030  -0.27745  -0.27720  -0.25787
 Alpha  occ. eigenvalues --   -0.24420  -0.23211  -0.23065  -0.22354  -0.22014
 Alpha virt. eigenvalues --   -0.06270  -0.05752  -0.04157  -0.03519  -0.03420
 Alpha virt. eigenvalues --   -0.03172  -0.02178  -0.02059   0.01616   0.02054
 Alpha virt. eigenvalues --    0.03553   0.06789   0.08060   0.08251   0.08653
 Alpha virt. eigenvalues --    0.08663   0.08956   0.09088   0.10965   0.11705
 Alpha virt. eigenvalues --    0.12454   0.14094   0.14476   0.14935   0.15662
 Alpha virt. eigenvalues --    0.16385   0.16609   0.17739   0.17895   0.18744
 Alpha virt. eigenvalues --    0.20442   0.21071   0.21154   0.22127   0.22380
 Alpha virt. eigenvalues --    0.22794   0.23418   0.23802   0.25704   0.25947
 Alpha virt. eigenvalues --    0.26236   0.26413   0.27114   0.27354   0.27763
 Alpha virt. eigenvalues --    0.28606   0.28620   0.29078   0.30109   0.30142
 Alpha virt. eigenvalues --    0.30493   0.30642   0.30689   0.31437   0.32121
 Alpha virt. eigenvalues --    0.32840   0.34034   0.34872   0.34880   0.35633
 Alpha virt. eigenvalues --    0.36272   0.36608   0.37257   0.37352   0.38321
 Alpha virt. eigenvalues --    0.38438   0.38573   0.39150   0.39378   0.39812
 Alpha virt. eigenvalues --    0.39999   0.40671   0.40944   0.41132   0.41330
 Alpha virt. eigenvalues --    0.41383   0.41989   0.42561   0.42781   0.43988
 Alpha virt. eigenvalues --    0.44183   0.44413   0.44733   0.45055   0.46077
 Alpha virt. eigenvalues --    0.47139   0.47254   0.48129   0.49011   0.49314
 Alpha virt. eigenvalues --    0.49756   0.51052   0.51697   0.51944   0.53170
 Alpha virt. eigenvalues --    0.53558   0.53717   0.54680   0.54780   0.55364
 Alpha virt. eigenvalues --    0.56897   0.57369   0.57478   0.58123   0.59401
 Alpha virt. eigenvalues --    0.60284   0.61005   0.61897   0.63748   0.64752
 Alpha virt. eigenvalues --    0.64801   0.65670   0.66479   0.67278   0.67738
 Alpha virt. eigenvalues --    0.68079   0.68299   0.68872   0.69146   0.70172
 Alpha virt. eigenvalues --    0.70265   0.70489   0.70845   0.71363   0.72736
 Alpha virt. eigenvalues --    0.72804   0.73303   0.74299   0.74485   0.74863
 Alpha virt. eigenvalues --    0.75041   0.75380   0.75882   0.76063   0.76662
 Alpha virt. eigenvalues --    0.77025   0.78279   0.79639   0.79851   0.80163
 Alpha virt. eigenvalues --    0.81157   0.81675   0.81750   0.83808   0.84099
 Alpha virt. eigenvalues --    0.86180   0.86261   0.87882   0.88786   0.88866
 Alpha virt. eigenvalues --    0.89593   0.89657   0.90707   0.90783   0.92446
 Alpha virt. eigenvalues --    0.92673   0.93409   0.94042   0.94446   0.95064
 Alpha virt. eigenvalues --    0.95129   0.96599   0.97066   0.97693   0.98410
 Alpha virt. eigenvalues --    0.99960   1.00693   1.01433   1.01821   1.02503
 Alpha virt. eigenvalues --    1.03081   1.03834   1.03894   1.04118   1.06020
 Alpha virt. eigenvalues --    1.06282   1.06807   1.08350   1.08394   1.08687
 Alpha virt. eigenvalues --    1.09333   1.09842   1.10330   1.11178   1.11675
 Alpha virt. eigenvalues --    1.14883   1.16187   1.18668   1.19815   1.21335
 Alpha virt. eigenvalues --    1.22802   1.24368   1.24432   1.25118   1.25379
 Alpha virt. eigenvalues --    1.25814   1.26862   1.27648   1.27707   1.29040
 Alpha virt. eigenvalues --    1.30302   1.33629   1.34031   1.38144   1.40102
 Alpha virt. eigenvalues --    1.40274   1.40755   1.42016   1.42413   1.44139
 Alpha virt. eigenvalues --    1.45276   1.45428   1.45874   1.45898   1.47751
 Alpha virt. eigenvalues --    1.49811   1.50451   1.51313   1.51988   1.52512
 Alpha virt. eigenvalues --    1.53459   1.53971   1.55286   1.56322   1.56646
 Alpha virt. eigenvalues --    1.57210   1.57356   1.58312   1.59714   1.60917
 Alpha virt. eigenvalues --    1.61247   1.61563   1.63072   1.63691   1.64649
 Alpha virt. eigenvalues --    1.65071   1.67466   1.67886   1.68090   1.68340
 Alpha virt. eigenvalues --    1.69526   1.70707   1.71210   1.71522   1.71707
 Alpha virt. eigenvalues --    1.72001   1.77405   1.78159   1.78857   1.79208
 Alpha virt. eigenvalues --    1.80833   1.82162   1.83766   1.87234   1.87480
 Alpha virt. eigenvalues --    1.87876   1.89204   1.89538   1.90609   1.91318
 Alpha virt. eigenvalues --    1.91670   1.92691   1.93247   1.93817   1.95061
 Alpha virt. eigenvalues --    1.95202   1.95980   1.96431   1.98258   1.99071
 Alpha virt. eigenvalues --    1.99318   2.02058   2.02460   2.02735   2.03284
 Alpha virt. eigenvalues --    2.03604   2.05001   2.05830   2.06072   2.06585
 Alpha virt. eigenvalues --    2.06885   2.08102   2.08219   2.08317   2.09483
 Alpha virt. eigenvalues --    2.09981   2.10186   2.10568   2.10706   2.11381
 Alpha virt. eigenvalues --    2.13910   2.14064   2.14523   2.15435   2.15570
 Alpha virt. eigenvalues --    2.17136   2.18111   2.18419   2.18801   2.19811
 Alpha virt. eigenvalues --    2.19930   2.20226   2.21305   2.21861   2.21933
 Alpha virt. eigenvalues --    2.23460   2.24753   2.25330   2.25852   2.26590
 Alpha virt. eigenvalues --    2.26851   2.28348   2.28466   2.29109   2.29341
 Alpha virt. eigenvalues --    2.29636   2.30949   2.32303   2.33947   2.36512
 Alpha virt. eigenvalues --    2.38817   2.39497   2.41577   2.43159   2.44210
 Alpha virt. eigenvalues --    2.46987   2.48152   2.54036   2.54727   2.56020
 Alpha virt. eigenvalues --    2.57427   2.57923   2.58126   2.64636   2.65093
 Alpha virt. eigenvalues --    2.66224   2.66579   2.66722   2.68208   2.68693
 Alpha virt. eigenvalues --    2.70816   2.70895   2.71519   2.72742   2.73559
 Alpha virt. eigenvalues --    2.75282   2.80752   2.81225   2.81252   2.82048
 Alpha virt. eigenvalues --    2.82094   2.86788   2.87658   2.88466   2.89610
 Alpha virt. eigenvalues --    2.90689   2.90852   2.92961   2.95079   2.95202
 Alpha virt. eigenvalues --    2.96937   2.97225   2.97927   2.99124   2.99345
 Alpha virt. eigenvalues --    3.00742   3.01341   3.01937   3.03016   3.03865
 Alpha virt. eigenvalues --    3.04774   3.04969   3.05691   3.05780   3.06250
 Alpha virt. eigenvalues --    3.06286   3.07853   3.08841   3.09813   3.10388
 Alpha virt. eigenvalues --    3.10719   3.11636   3.12951   3.13470   3.14149
 Alpha virt. eigenvalues --    3.14566   3.15511   3.15591   3.15638   3.16004
 Alpha virt. eigenvalues --    3.16083   3.16363   3.16637   3.16704   3.18542
 Alpha virt. eigenvalues --    3.20439   3.22574   3.23017   3.23647   3.24460
 Alpha virt. eigenvalues --    3.24581   3.25937   3.27214   3.27502   3.27605
 Alpha virt. eigenvalues --    3.29047   3.29452   3.29862   3.31317   3.32094
 Alpha virt. eigenvalues --    3.34606   3.37332   3.37803   3.40312   3.40489
 Alpha virt. eigenvalues --    3.42950   3.42969   3.43684   3.43986   3.44762
 Alpha virt. eigenvalues --    3.45133   3.46607   3.46780   3.47419   3.48417
 Alpha virt. eigenvalues --    3.48811   3.48936   3.49125   3.49560   3.50094
 Alpha virt. eigenvalues --    3.50566   3.51833   3.52131   3.52332   3.53917
 Alpha virt. eigenvalues --    3.55607   3.56600   3.59112   3.59326   3.60201
 Alpha virt. eigenvalues --    3.60608   3.62520   3.62955   3.63057   3.64670
 Alpha virt. eigenvalues --    3.65111   3.65463   3.65752   3.66684   3.67222
 Alpha virt. eigenvalues --    3.68447   3.70484   3.71563   3.73091   3.75084
 Alpha virt. eigenvalues --    3.77157   3.79696   3.80643   3.80711   3.80938
 Alpha virt. eigenvalues --    3.81177   3.82611   3.85096   3.85525   3.91516
 Alpha virt. eigenvalues --    3.92114   3.92828   3.93626   3.93652   3.93744
 Alpha virt. eigenvalues --    3.94214   3.94444   3.95306   3.96002   3.96463
 Alpha virt. eigenvalues --    3.97350   3.97566   3.97759   3.98583   3.98746
 Alpha virt. eigenvalues --    4.02009   4.04196   4.05113   4.06028   4.06958
 Alpha virt. eigenvalues --    4.11918   4.12439   4.13170   4.13347   4.13673
 Alpha virt. eigenvalues --    4.14175   4.16044   4.16708   4.17447   4.17856
 Alpha virt. eigenvalues --    4.19381   4.19950   4.20369   4.20427   4.22428
 Alpha virt. eigenvalues --    4.23797   4.24149   4.25125   4.26224   4.33150
 Alpha virt. eigenvalues --    4.36068   4.37095   4.41049   4.43491   4.43595
 Alpha virt. eigenvalues --    4.44519   4.47884   4.48510   4.49969   4.51173
 Alpha virt. eigenvalues --    4.51686   4.54079   4.54986   4.55317   4.56141
 Alpha virt. eigenvalues --    4.56383   4.56803   4.65786   4.71433   4.72833
 Alpha virt. eigenvalues --    4.75423   4.97753   5.00997   5.02013   5.20903
 Alpha virt. eigenvalues --    5.22237   5.23390   5.23441   5.23660   5.23672
 Alpha virt. eigenvalues --    5.24360   5.24927   5.25314   5.25527   5.25552
 Alpha virt. eigenvalues --    5.25585   5.25908   5.25922   5.26211   5.26669
 Alpha virt. eigenvalues --    5.26807   5.27925   5.28344   5.29023   5.29310
 Alpha virt. eigenvalues --    5.30065   5.31155   5.31911   5.32062   5.32533
 Alpha virt. eigenvalues --    5.32690   5.33387   5.35154   5.35506   5.36770
 Alpha virt. eigenvalues --    5.37495   5.39572   5.41476   5.41844   5.43499
 Alpha virt. eigenvalues --    5.43728   5.49309   5.49787   5.57798   5.57999
 Alpha virt. eigenvalues --    5.58267   5.58687   5.58904   5.60172   5.61504
 Alpha virt. eigenvalues --    5.62888   5.62916   5.63716   5.63974   5.67994
 Alpha virt. eigenvalues --    5.68443   5.68852   5.69180   5.69323   5.69333
 Alpha virt. eigenvalues --    5.69487   5.81247   5.82524   5.87352   5.88302
 Alpha virt. eigenvalues --    5.88910   5.89311   5.90907   5.92238   5.94163
 Alpha virt. eigenvalues --    5.94833   5.95679   6.04747   6.05122   6.05414
 Alpha virt. eigenvalues --    6.07377   6.09278   6.10001   6.16060   6.16129
 Alpha virt. eigenvalues --    6.16291   6.16469   6.16771   6.16963   6.16985
 Alpha virt. eigenvalues --    6.17550   6.18932   6.19497   6.21006   6.25600
 Alpha virt. eigenvalues --    6.36604   6.39612   6.41433   6.44096   6.44280
 Alpha virt. eigenvalues --    6.45136   6.46631   6.47199   6.48218   6.48618
 Alpha virt. eigenvalues --    6.48671   6.49454   6.49722   6.52502   6.53364
 Alpha virt. eigenvalues --    6.54208   6.55288   6.56947   6.57229   6.58739
 Alpha virt. eigenvalues --    6.58773   6.60165   6.60372   6.62383   6.63107
 Alpha virt. eigenvalues --    6.65202   6.66035   6.66671   6.67572   6.68302
 Alpha virt. eigenvalues --    6.69895   6.70373   6.72324   6.75294   6.75843
 Alpha virt. eigenvalues --    6.79609   6.84592   6.84667   6.85644   6.86375
 Alpha virt. eigenvalues --    6.87495   6.88878   6.89647   6.90139   6.90263
 Alpha virt. eigenvalues --    6.90446   6.90980   6.92368   6.92409   6.93640
 Alpha virt. eigenvalues --    6.94545   6.96593   6.96845   6.97098   6.97593
 Alpha virt. eigenvalues --    7.01139   7.04229   7.04691   7.05933   7.06826
 Alpha virt. eigenvalues --    7.07156   7.09746   7.10211   7.14644   7.22490
 Alpha virt. eigenvalues --    7.23039   7.24078   7.24516   7.24564   7.24830
 Alpha virt. eigenvalues --    7.25308   7.26362   7.26829   7.27640   7.28116
 Alpha virt. eigenvalues --    7.28585   7.31196   7.32215   7.32413   7.36302
 Alpha virt. eigenvalues --    7.38943   7.39679   7.42552   7.42677   7.51972
 Alpha virt. eigenvalues --    7.70601  23.21341  23.21355  23.21427  23.21951
 Alpha virt. eigenvalues --   23.22305  23.24056  31.91340  33.00067  43.78717
 Alpha virt. eigenvalues --   43.85621  43.89030  43.89894  43.96709  43.97418
 Alpha virt. eigenvalues --   44.04753  44.11583  44.15561  44.18183  44.26882
 Alpha virt. eigenvalues --   44.28832  44.29934  44.46525
  Beta  occ. eigenvalues -- -255.62428-255.62213-255.61911 -29.95827 -29.95765
  Beta  occ. eigenvalues --  -29.95440 -25.76192 -25.76177 -25.75881 -25.75853
  Beta  occ. eigenvalues --  -25.75770 -25.75741 -25.75607 -25.75400 -25.75318
  Beta  occ. eigenvalues --  -19.09222 -18.98022 -18.98007 -18.97995 -18.97984
  Beta  occ. eigenvalues --  -18.97962 -18.97954 -18.97942 -18.97936 -18.97930
  Beta  occ. eigenvalues --  -18.97926 -18.97911 -18.97911 -18.94888 -14.40986
  Beta  occ. eigenvalues --  -14.28394 -10.18108 -10.18101 -10.18092 -10.18084
  Beta  occ. eigenvalues --  -10.17945 -10.17945  -3.39802  -3.39799  -3.39523
  Beta  occ. eigenvalues --   -2.14863  -2.14707  -2.14641  -2.14239  -2.14168
  Beta  occ. eigenvalues --   -2.13905  -2.13850  -2.13771  -2.13655  -1.23296
  Beta  occ. eigenvalues --   -1.06459  -1.06398  -1.06188  -1.06137  -1.05867
  Beta  occ. eigenvalues --   -1.05811  -1.05751  -0.98524  -0.98473  -0.98143
  Beta  occ. eigenvalues --   -0.98070  -0.98027  -0.97901  -0.89600  -0.61381
  Beta  occ. eigenvalues --   -0.59146  -0.58181  -0.58022  -0.57717  -0.57518
  Beta  occ. eigenvalues --   -0.57469  -0.54946  -0.54513  -0.48555  -0.48448
  Beta  occ. eigenvalues --   -0.47128  -0.46758  -0.46756  -0.46683  -0.46673
  Beta  occ. eigenvalues --   -0.46621  -0.46214  -0.46113  -0.45991  -0.45890
  Beta  occ. eigenvalues --   -0.45806  -0.43017  -0.42157  -0.42069  -0.41232
  Beta  occ. eigenvalues --   -0.40331  -0.40238  -0.36693  -0.36311  -0.34389
  Beta  occ. eigenvalues --   -0.33685  -0.31713  -0.31673  -0.31596  -0.30974
  Beta  occ. eigenvalues --   -0.29776  -0.29588  -0.29464  -0.29425  -0.29407
  Beta  occ. eigenvalues --   -0.28978  -0.28870  -0.28278  -0.28152  -0.28005
  Beta  occ. eigenvalues --   -0.27879  -0.27208  -0.27156  -0.27050  -0.25788
  Beta  occ. eigenvalues --   -0.17928
  Beta virt. eigenvalues --   -0.16645  -0.16464  -0.15879  -0.15733  -0.15452
  Beta virt. eigenvalues --   -0.15338  -0.14498  -0.13113  -0.12029  -0.09429
  Beta virt. eigenvalues --   -0.09389  -0.09094  -0.08512  -0.08139  -0.05685
  Beta virt. eigenvalues --   -0.05592  -0.03061  -0.03001  -0.02930  -0.02881
  Beta virt. eigenvalues --   -0.01958  -0.01861   0.02618   0.03232   0.04201
  Beta virt. eigenvalues --    0.07309   0.08293   0.08486   0.08688   0.08946
  Beta virt. eigenvalues --    0.09024   0.09162   0.11579   0.12283   0.12931
  Beta virt. eigenvalues --    0.15248   0.16480   0.16501   0.16669   0.16919
  Beta virt. eigenvalues --    0.17735   0.18103   0.18547   0.18827   0.21169
  Beta virt. eigenvalues --    0.21548   0.21715   0.22299   0.22516   0.22875
  Beta virt. eigenvalues --    0.24080   0.24318   0.26163   0.26270   0.26808
  Beta virt. eigenvalues --    0.26902   0.27357   0.27430   0.27741   0.28170
  Beta virt. eigenvalues --    0.28337   0.29016   0.29829   0.30917   0.31144
  Beta virt. eigenvalues --    0.31799   0.31837   0.32216   0.32922   0.33773
  Beta virt. eigenvalues --    0.34322   0.35020   0.35748   0.35808   0.36484
  Beta virt. eigenvalues --    0.36875   0.37535   0.37952   0.38351   0.38513
  Beta virt. eigenvalues --    0.39184   0.39190   0.39761   0.39879   0.40904
  Beta virt. eigenvalues --    0.41125   0.41262   0.41433   0.41720   0.42174
  Beta virt. eigenvalues --    0.42433   0.42810   0.43351   0.44215   0.44409
  Beta virt. eigenvalues --    0.44792   0.45000   0.46047   0.46679   0.47482
  Beta virt. eigenvalues --    0.48097   0.48456   0.49224   0.49541   0.50445
  Beta virt. eigenvalues --    0.50815   0.51611   0.52823   0.54277   0.54539
  Beta virt. eigenvalues --    0.54801   0.55236   0.55990   0.56105   0.57206
  Beta virt. eigenvalues --    0.57573   0.57618   0.58348   0.59134   0.60363
  Beta virt. eigenvalues --    0.61845   0.62060   0.64194   0.64604   0.65161
  Beta virt. eigenvalues --    0.65930   0.66470   0.67571   0.68225   0.68390
  Beta virt. eigenvalues --    0.68576   0.69024   0.69706   0.70526   0.71086
  Beta virt. eigenvalues --    0.71130   0.71263   0.71819   0.72844   0.73329
  Beta virt. eigenvalues --    0.73706   0.74106   0.75319   0.75338   0.75611
  Beta virt. eigenvalues --    0.75675   0.76383   0.76476   0.77100   0.77268
  Beta virt. eigenvalues --    0.78929   0.80109   0.80696   0.81228   0.81847
  Beta virt. eigenvalues --    0.82132   0.82785   0.84027   0.84787   0.86574
  Beta virt. eigenvalues --    0.87079   0.89375   0.90228   0.90598   0.90680
  Beta virt. eigenvalues --    0.90866   0.91268   0.91861   0.93417   0.93605
  Beta virt. eigenvalues --    0.94711   0.95212   0.95592   0.95831   0.96605
  Beta virt. eigenvalues --    0.97295   0.98013   0.98143   0.98893   1.01180
  Beta virt. eigenvalues --    1.01905   1.02087   1.02953   1.03438   1.04172
  Beta virt. eigenvalues --    1.04339   1.04587   1.05226   1.06965   1.08018
  Beta virt. eigenvalues --    1.08868   1.09478   1.09797   1.10371   1.11070
  Beta virt. eigenvalues --    1.11472   1.11984   1.13567   1.13663   1.15886
  Beta virt. eigenvalues --    1.17376   1.19270   1.20203   1.22244   1.23577
  Beta virt. eigenvalues --    1.24657   1.25088   1.25572   1.26043   1.27070
  Beta virt. eigenvalues --    1.27607   1.28068   1.28457   1.30433   1.31569
  Beta virt. eigenvalues --    1.34499   1.34949   1.38365   1.40694   1.41275
  Beta virt. eigenvalues --    1.41322   1.42536   1.43450   1.45449   1.45951
  Beta virt. eigenvalues --    1.46428   1.46518   1.47345   1.48185   1.50501
  Beta virt. eigenvalues --    1.51184   1.52082   1.52849   1.53771   1.53907
  Beta virt. eigenvalues --    1.54548   1.56116   1.57230   1.57417   1.57844
  Beta virt. eigenvalues --    1.58027   1.59075   1.60089   1.61364   1.61536
  Beta virt. eigenvalues --    1.61938   1.63578   1.63838   1.65167   1.65434
  Beta virt. eigenvalues --    1.67931   1.68293   1.68408   1.68778   1.70325
  Beta virt. eigenvalues --    1.71547   1.71738   1.72180   1.72292   1.73169
  Beta virt. eigenvalues --    1.77905   1.78597   1.79982   1.80214   1.81082
  Beta virt. eigenvalues --    1.82737   1.84367   1.87610   1.88058   1.88821
  Beta virt. eigenvalues --    1.90505   1.91048   1.91852   1.92401   1.92750
  Beta virt. eigenvalues --    1.93014   1.93886   1.94514   1.95874   1.96206
  Beta virt. eigenvalues --    1.96673   1.97204   1.99242   2.00012   2.00968
  Beta virt. eigenvalues --    2.02524   2.03221   2.03832   2.04724   2.05339
  Beta virt. eigenvalues --    2.05819   2.07200   2.07359   2.07806   2.07870
  Beta virt. eigenvalues --    2.09252   2.09725   2.10127   2.10576   2.10742
  Beta virt. eigenvalues --    2.11059   2.11913   2.12183   2.12632   2.15088
  Beta virt. eigenvalues --    2.15647   2.15969   2.16381   2.16560   2.18370
  Beta virt. eigenvalues --    2.19748   2.19768   2.20259   2.20277   2.20414
  Beta virt. eigenvalues --    2.21028   2.22397   2.22483   2.23389   2.24274
  Beta virt. eigenvalues --    2.26078   2.26338   2.27117   2.28478   2.29954
  Beta virt. eigenvalues --    2.30145   2.30695   2.31134   2.32144   2.32925
  Beta virt. eigenvalues --    2.33793   2.34153   2.35455   2.36744   2.39422
  Beta virt. eigenvalues --    2.40294   2.42019   2.43451   2.44651   2.47845
  Beta virt. eigenvalues --    2.48935   2.55948   2.56875   2.56966   2.58892
  Beta virt. eigenvalues --    2.59472   2.61409   2.65179   2.66615   2.66982
  Beta virt. eigenvalues --    2.67606   2.68331   2.69633   2.69821   2.71565
  Beta virt. eigenvalues --    2.71887   2.72266   2.74498   2.74691   2.77144
  Beta virt. eigenvalues --    2.81304   2.81807   2.82143   2.82862   2.83092
  Beta virt. eigenvalues --    2.87655   2.89733   2.91004   2.91301   2.92536
  Beta virt. eigenvalues --    2.92733   2.94401   2.96738   2.97235   2.98050
  Beta virt. eigenvalues --    2.98113   2.98444   2.99745   2.99923   3.01187
  Beta virt. eigenvalues --    3.01915   3.02594   3.03218   3.04503   3.06171
  Beta virt. eigenvalues --    3.06243   3.06849   3.06891   3.06931   3.07507
  Beta virt. eigenvalues --    3.08928   3.10216   3.10723   3.11447   3.11633
  Beta virt. eigenvalues --    3.12686   3.13154   3.13991   3.14728   3.15052
  Beta virt. eigenvalues --    3.15708   3.15839   3.16227   3.16440   3.16875
  Beta virt. eigenvalues --    3.16964   3.17091   3.17271   3.20244   3.21788
  Beta virt. eigenvalues --    3.23832   3.24505   3.24716   3.24866   3.25327
  Beta virt. eigenvalues --    3.27139   3.28044   3.28288   3.28924   3.29706
  Beta virt. eigenvalues --    3.30535   3.31370   3.32265   3.32667   3.35287
  Beta virt. eigenvalues --    3.38068   3.38531   3.41147   3.43834   3.46061
  Beta virt. eigenvalues --    3.46691   3.47119   3.47123   3.47694   3.47754
  Beta virt. eigenvalues --    3.48153   3.48919   3.49161   3.49417   3.49516
  Beta virt. eigenvalues --    3.49785   3.49850   3.50723   3.50988   3.51133
  Beta virt. eigenvalues --    3.53814   3.53921   3.54069   3.55928   3.58919
  Beta virt. eigenvalues --    3.59884   3.61275   3.63872   3.64416   3.65159
  Beta virt. eigenvalues --    3.65598   3.66991   3.68259   3.68314   3.69279
  Beta virt. eigenvalues --    3.69346   3.69709   3.72918   3.73714   3.75596
  Beta virt. eigenvalues --    3.75637   3.77368   3.80012   3.80760   3.81699
  Beta virt. eigenvalues --    3.81744   3.82971   3.83143   3.83336   3.85811
  Beta virt. eigenvalues --    3.86304   3.86981   3.88312   3.97138   3.98710
  Beta virt. eigenvalues --    3.98866   3.99336   4.00362   4.04239   4.07929
  Beta virt. eigenvalues --    4.10579   4.10604   4.10786   4.11152   4.11323
[...]
 .00023999,0.00046575,-0.00027520,-0.00000893,-0.00006117,0.00008212,0.
 00077782,0.00175192,-0.00058164,0.00069530,0.00026922,-0.00030425,-0.0
 0108465,-0.00073495,0.00085489,0.00003254,0.00011049,-0.00016213,-0.00
 200945,-0.01227027,-0.00673130,0.04236636,-0.15116007,-0.13978224,-0.0
 1443394,-0.00023358,-0.00709028,-0.14872794,0.05018666,-0.13930520,0.0
 0153629,-0.00050312,0.00071708,-0.00206096,-0.00115062,0.00011993,0.00
 427560,0.00164841,0.00082987,0.19151993,0.18332411,0.46370795,0.000039
 67,-0.00005300,-0.00008840,0.00009694,0.00005877,0.00016119,-0.0001637
 3,0.00004097,0.00009526,0.00002362,0.00000560,-0.00001561,-0.00029674,
 -0.00007110,0.00028961,-0.00008162,0.00011216,0.00017463,0.00001764,-0
 .00007913,-0.00011032,-0.00004594,-0.00001624,0.00004032,-0.00002276,-
 0.00012810,-0.00020680,-0.00012074,0.00002030,-0.00008712,-0.00043668,
 0.00004526,-0.00020008,0.00010541,0.00010444,0.00002870,-0.00001841,-0
 .00004361,-0.00004432,0.00016432,0.00018727,0.00014174,0.00007831,-0.0
 0008779,0.00017037,-0.00016975,0.00001271,-0.00007710,0.00002090,-0.00
 003399,-0.00000250,0.00023131,-0.00007762,-0.00140996,0.01287931,0.015
 32669,0.00678736,0.00304651,0.00110661,0.00145969,-0.03099192,-0.00001
 893,-0.03547856,0.00019479,-0.00026223,-0.00102195,0.00033214,-0.00004
 259,-0.00012152,-0.00002823,-0.00005854,0.00019931,-0.10589685,-0.0662
 8474,-0.07532680,0.12117114,0.00009141,-0.00012677,-0.00006981,-0.0000
 8430,-0.00028713,-0.00006501,-0.00001583,0.00001914,-0.00002631,-0.000
 03348,-0.00001289,-0.00004028,0.00027378,0.00012042,0.00004575,-0.0000
 1637,0.00007812,0.00009417,-0.00002068,-0.00015403,-0.00003032,-0.0000
 2613,0.00002671,-0.00000712,-0.00011014,0.00005631,-0.00081612,-0.0000
 6739,0.00003500,-0.00001299,0.00004265,0.00013041,0.00021544,0.0000499
 3,-0.00011252,0.00003926,0.00002306,0.00002395,-0.00002743,-0.00001748
 ,-0.00019238,0.00014634,0.00016578,-0.00014846,0.00017235,-0.00016991,
 -0.00000506,-0.00008078,0.00000040,-0.00002857,0.00004112,0.00118949,0
 .00313875,0.00155206,-0.00196694,-0.03141761,-0.03559014,0.00006112,0.
 00009273,-0.00140530,0.01696539,0.01217670,0.00855708,-0.00004238,-0.0
 0002192,-0.00027142,-0.00012835,0.00011704,-0.00012230,-0.00028747,0.0
 0006532,0.00018907,-0.06621091,-0.10074498,-0.07304914,0.05006787,0.11
 746556,-0.00003457,-0.00008040,-0.00004421,-0.00002802,-0.00014083,-0.
 00028275,0.00016901,0.00008984,0.00005332,-0.00001480,-0.00004026,-0.0
 0001219,-0.00067168,-0.00019931,0.00021797,-0.00012655,-0.00008977,0.0
 0004997,0.00014236,0.00024555,-0.00015529,-0.00002558,-0.00002647,0.00
 007706,0.00025431,0.00027274,0.00002538,-0.00005731,0.00005084,-0.0001
 2718,0.00001622,-0.00007134,-0.00020454,0.00001896,-0.00001662,0.00007
 053,-0.00005397,-0.00000149,0.00000392,-0.00025356,-0.00062244,0.00017
 418,-0.00009069,-0.00007512,0.00002748,0.00026865,0.00013820,-0.000142
 02,-0.00002833,-0.00002788,0.00006971,-0.00057684,0.00081656,0.0024710
 1,-0.00528099,-0.02252247,-0.00172641,0.00054421,-0.00037487,0.0024123
 1,-0.02284307,-0.00455167,-0.00206635,0.00029525,0.00029409,0.00006463
 ,0.00017919,0.00024136,0.00004877,-0.00068207,-0.00057989,-0.00074173,
 -0.07571946,-0.07299635,-0.16952132,0.10456300,0.10046682,0.16933204,-
 0.00143507,0.00027862,0.00047398,-0.00242901,-0.00302054,0.00154855,0.
 00269609,0.00046763,0.00010364,-0.00002274,0.00019891,-0.00012632,0.00
 103605,0.00004268,-0.00138198,0.00059041,-0.00044569,-0.00079486,-0.00
 031637,0.00008373,0.00044768,0.00011895,0.00013837,-0.00004454,-0.1401
 9664,0.10995106,-0.02145138,0.00032227,0.00205817,-0.00019328,0.004639
 39,0.00248831,-0.00068800,-0.00237410,-0.00388343,-0.00124412,-0.00006
 118,0.00010907,0.00022296,-0.00035927,0.00005869,-0.00021067,0.0010547
 4,-0.00043566,0.00026255,-0.00081222,-0.00055419,0.00050434,-0.0000493
 9,0.00008975,0.00002588,0.00904342,0.01521183,-0.01775704,-0.00325295,
 0.00216608,0.00530405,-0.03181603,-0.00962124,0.03357378,-0.00246329,0
 .00380817,-0.00775225,-0.36403732,0.14611786,0.13093835,-0.00326440,-0
 .00118459,0.00031776,0.00156529,0.00234379,-0.00122008,0.00676478,-0.0
 0603396,0.00024740,-0.00029415,-0.00000255,-0.00006971,0.62573716,0.00
 193739,0.00000946,-0.00066008,0.00250552,0.00380167,-0.00190583,-0.003
 55576,-0.00175062,-0.00050061,0.00005658,-0.00015026,0.00024508,-0.001
 19275,-0.00004012,0.00167097,-0.00029184,0.00013689,0.00007348,0.00014
 074,0.00056403,0.00000992,-0.00003217,-0.00021665,0.00002558,0.1391142
 0,-0.38932967,0.12546144,0.00014571,-0.00174960,0.00015554,-0.00423997
 ,-0.00307301,0.00035394,0.00099218,0.00339744,0.00056207,0.00006579,-0
 .00012793,-0.00013414,0.00070528,-0.00005911,0.00039717,-0.00098550,0.
 00066313,-0.00049390,0.00082322,0.00027352,-0.00021790,0.00001494,-0.0
 0003462,-0.00007726,-0.01027438,-0.03165495,0.03023970,0.00281949,-0.0
 0227174,-0.00704335,0.01484508,0.01067882,-0.01961247,0.00273006,-0.00
 419255,0.00624103,0.11370223,-0.14908731,-0.03010341,0.00056240,-0.001
 32019,0.00080385,0.00487880,0.00119643,-0.00250895,-0.00592099,0.00733
 508,0.00135714,0.00018170,-0.00018159,-0.00013325,-0.19929923,0.655674
 14,-0.00068078,-0.00029282,-0.00025761,-0.00074830,-0.00171251,-0.0005
 4633,0.00106477,0.00076386,0.00076643,-0.00004478,-0.00011981,-0.00015
 928,-0.00024315,0.00002517,-0.00037866,-0.00042822,0.00030109,0.000445
 19,0.00023646,-0.00048506,-0.00028854,0.00000740,0.00005816,0.00008297
 ,-0.04545014,0.15108045,-0.14196671,-0.00037600,-0.00029660,-0.0004837
 0,-0.00147973,-0.00035164,-0.00010605,0.00072999,0.00051885,0.00089532
 ,-0.00008507,0.00002013,-0.00013711,-0.00032759,-0.00029995,-0.0001315
 6,-0.00011832,-0.00026254,0.00030231,0.00003089,0.00035581,-0.00032227
 ,0.00003733,-0.00004151,0.00007119,0.00150808,0.01193374,-0.00668812,0
 .00029549,-0.00034275,0.00123182,0.01539875,0.00037740,-0.00891104,-0.
 00138185,0.00039398,0.00102790,0.15611399,-0.05571366,-0.14979579,0.00
 219954,0.00121476,-0.00003004,-0.00441737,-0.00172010,0.00115191,-0.00
 071411,-0.00117428,-0.00385934,0.00011102,0.00019283,0.00003396,-0.194
 03816,-0.17929255,0.48641083,0.00007655,-0.00009219,-0.00017547,0.0001
 6958,0.00021784,-0.00014070,-0.00018474,0.00000665,0.00008379,0.000023
 67,-0.00003139,0.00000483,-0.00042949,0.00006929,0.00021194,-0.0001204
 1,0.00002108,0.00008508,0.00010737,0.00009946,-0.00003624,-0.00001336,
 -0.00004175,0.00004638,0.01272202,0.01631590,-0.00780505,-0.00008500,0
 .00010745,-0.00017116,-0.00028310,-0.00007735,-0.00026839,0.00001943,-
 0.00008173,0.00010576,-0.00004641,-0.00001609,-0.00003484,0.00008784,0
 .00005545,-0.00017170,0.00003976,-0.00004131,0.00008071,-0.00016734,0.
 00003952,-0.00008374,0.00002484,0.00000640,0.00001265,0.00032558,-0.00
 012986,0.00149389,-0.00002800,-0.00013587,0.00020399,0.00291724,0.0011
 0076,-0.00150512,0.00023559,-0.00026812,0.00101098,-0.02850710,0.00065
 415,0.03662783,0.00033598,-0.00005109,0.00011340,-0.00000241,-0.000021
 52,-0.00022885,-0.00029079,0.00018654,-0.00009519,0.00014603,0.0000805
 7,-0.00001559,-0.09923828,-0.06198623,0.07322031,0.11215507,0.00016265
 ,-0.00014907,-0.00017802,-0.00001668,-0.00017761,-0.00014360,-0.000175
 55,-0.00001002,0.00008803,-0.00000121,-0.00002944,-0.00003860,0.000029
 27,0.00011774,-0.00022091,-0.00006690,0.00003131,0.00001032,0.00004869
 ,-0.00010601,-0.00003761,0.00002496,0.00002395,0.00002672,-0.00023486,
 -0.03040885,0.03607380,-0.00002348,0.00008201,-0.00009676,0.00028253,0
 .00012971,-0.00005599,-0.00002052,-0.00016407,0.00003249,-0.00002545,0
 .00002721,0.00000830,-0.00008532,-0.00027620,0.00005799,0.00010057,-0.
 00012679,0.00006918,-0.00002685,0.00001515,0.00003016,-0.00002965,-0.0
 0001037,0.00004261,0.00112752,0.00314007,-0.00158160,-0.00007551,0.000
 05753,0.00082197,0.00014313,0.00014158,0.00142585,-0.00003246,-0.00002
 311,0.00028375,0.01683644,0.01211769,-0.00942434,-0.00012162,0.0001198
 2,0.00012940,-0.00028244,0.00004756,-0.00018998,-0.00001386,-0.0001850
 9,-0.00019390,0.00008216,0.00011432,-0.00001455,-0.06189117,-0.0986676
 5,0.07480964,0.04409713,0.11438914,0.00008238,0.00008089,0.00002767,0.
 00025030,0.00062008,0.00016229,-0.00026193,-0.00014035,-0.00012262,0.0
 0003220,0.00003228,0.00006775,-0.00001199,0.00006109,-0.00020738,0.000
 05377,-0.00006034,-0.00013640,-0.00001875,0.00002245,0.00007169,0.0000
 5502,0.00000263,0.00000016,0.00456511,0.02241238,-0.00261286,0.0001302
 9,0.00008721,0.00004959,0.00068900,0.00021201,0.00019711,-0.00014690,-
 0.00024656,-0.00014988,0.00003072,0.00002842,0.00007720,0.00001034,0.0
 0013332,-0.00027634,0.00002610,0.00008672,-0.00005480,-0.00015518,-0.0
 0008704,0.00006786,0.00001388,0.00003930,-0.00001544,0.00065656,-0.000
 86412,0.00240764,-0.00025027,-0.00027235,0.00001372,-0.00055718,0.0003
 6221,0.00247268,-0.00029737,-0.00028823,0.00003937,0.02361240,0.004407
 54,-0.00453377,-0.00017750,-0.00023418,0.00006189,0.00065652,0.0005671
 4,-0.00077035,0.00007625,0.00013539,0.00003773,0.00000430,0.00000708,-
 0.00009054,0.07365648,0.07466583,-0.17833601,-0.10259598,-0.10183169,0
 .18157070,0.00078539,0.00038924,-0.00007119,0.00140332,0.00052110,0.00
 030252,-0.00129530,-0.00090860,-0.00059698,-0.00003973,0.00007487,0.00
 011377,0.00029179,-0.00011366,-0.00043473,0.00043000,-0.00031616,-0.00
 031130,-0.00026133,0.00022275,0.00032262,0.00009989,-0.00002711,-0.000
 12053,0.00022639,-0.00481915,0.00284335,0.00045063,-0.00030974,0.00029
 399,0.00031623,-0.00011144,0.00041583,-0.00027500,0.00021705,-0.000314
 55,0.00010191,-0.00002375,0.00011912,0.00142309,0.00051434,-0.00040820
 ,0.00079831,0.00040299,-0.00000705,-0.00125396,-0.00090207,0.00070942,
 -0.00004783,0.00007495,-0.00011479,-0.02012155,-0.00187338,0.00040417,
 0.00023350,-0.00495776,-0.00292552,-0.00000678,0.00066189,0.00000834,0
 .00023151,-0.00169537,-0.00066604,0.00027115,-0.00164010,0.00068060,0.
 00001273,0.00009367,0.00000579,-0.00040310,0.00075760,0.00000924,0.000
 82824,0.00309381,0.00145280,-0.00010912,-0.00062860,-0.00054057,0.0007
 4139,0.00294753,-0.00151053,-0.00008736,-0.00059785,0.00054206,0.86440
 108,0.00152154,0.00028389,-0.00038373,0.00305762,0.00123478,0.00113951
 ,-0.00242153,-0.00115718,-0.00044606,0.00004501,0.00018209,0.00013175,
 0.00021443,-0.00027439,-0.00047219,0.00049771,-0.00040789,-0.00035411,
 -0.00024640,0.00039221,0.00036103,0.00011213,-0.00003432,-0.00013450,-
 0.00155472,-0.00557998,0.00262379,0.00052750,-0.00040169,0.00033257,0.
 00024472,-0.00027702,0.00045615,-0.00026205,0.00038776,-0.00035562,0.0
 0011349,-0.00003036,0.00013408,0.00299026,0.00117001,-0.00130373,0.001
 52901,0.00030518,0.00024475,-0.00235808,-0.00112008,0.00064927,0.00003
 270,0.00017448,-0.00014084,-0.02316639,0.00796449,0.00042904,-0.001757
 29,-0.00564962,-0.00256824,0.00150252,0.00189313,-0.00002572,-0.001862
 96,-0.00089650,-0.00155880,-0.00176151,-0.00084749,0.00163186,-0.00034
 498,0.00011945,0.00002559,0.00099522,-0.00014082,-0.00001954,0.0030851
 8,-0.00019424,0.00065785,-0.00008346,-0.00071924,-0.00063065,0.0030260
 1,-0.00024421,-0.00078063,-0.00005896,-0.00068214,0.00063261,0.9048993
 3,1.27047569,-0.00013409,-0.00009830,0.00002687,-0.00062816,-0.0001998
 9,-0.00052680,0.00008657,0.00017418,0.00005423,-0.00002143,-0.00004219
 ,-0.00001749,-0.00005720,-0.00003491,-0.00005601,-0.00001084,-0.000032
 89,-0.00004211,0.00002273,0.00005641,0.00000599,0.00001199,-0.00000113
 ,0.00000608,0.00085844,-0.00051568,-0.00030268,-0.00001091,0.00004408,
 -0.00005827,0.00003987,0.00003922,-0.00007513,-0.00000909,-0.00006629,
 0.00002124,-0.00001571,0.00000231,0.00000197,0.00053837,0.00018301,-0.
 00056983,0.00011521,0.00008414,0.00002143,-0.00003446,-0.00014524,0.00
 004909,0.00002318,0.00003834,-0.00001712,0.00041297,0.00004897,0.00156
 216,-0.00093919,0.00073809,-0.00017273,0.00002316,-0.00000789,0.000880
 38,-0.00127499,0.00072454,-0.00064730,0.00121441,-0.00064456,-0.000703
 73,0.00001044,0.00000168,0.00005193,0.00000074,-0.00000241,-0.00016407
 ,0.00124465,-0.00189899,-0.00021798,-0.00001680,-0.00002554,0.00003795
 ,-0.00126864,0.00171445,-0.00011943,0.00001963,0.00005018,0.00001292,-
 0.01311324,-0.01633576,0.13737091,-0.00061986,-0.00007253,0.00018753,-
 0.00107628,-0.00033705,-0.00044329,0.00094773,0.00053285,0.00018809,-0
 .00001464,-0.00005918,-0.00003389,-0.00005797,0.00007944,0.00011810,-0
 .00014279,0.00012335,0.00009891,0.00006546,-0.00011700,-0.00010235,-0.
 00002908,0.00001030,0.00003736,0.00055709,0.00068104,-0.00026883,-0.00
 015234,0.00012184,-0.00009266,-0.00006539,0.00008044,-0.00011419,0.000
 06924,-0.00011639,0.00010094,-0.00002931,0.00000919,-0.00003754,-0.001
 04881,-0.00032042,0.00051039,-0.00062991,-0.00008088,-0.00013644,0.000
 92429,0.00052154,-0.00026989,-0.00001186,-0.00005806,0.00003737,0.0058
 9785,-0.00322459,-0.00009375,0.00070158,0.00074098,0.00023819,-0.00045
 888,-0.00051827,0.00001349,0.00069961,0.00006811,0.00044757,0.00068401
 ,0.00003796,-0.00048116,0.00023856,-0.00014902,-0.00000964,-0.00032613
 ,0.00013829,0.00000487,-0.00079491,0.00034884,-0.00018590,-0.00000294,
 0.00013802,0.00016525,-0.00080026,0.00040622,0.00019022,-0.00000965,0.
 00012718,-0.00016127,-0.51685744,-0.56167769,0.00822587,0.51811274,-0.
 00075367,-0.00010478,0.00025480,-0.00156895,-0.00062966,-0.00069916,0.
 00121533,0.00061780,0.00014648,-0.00004907,-0.00010329,-0.00005943,-0.
 00005263,0.00012913,0.00016682,-0.00019398,0.00016795,0.00012916,0.000
 07530,-0.00017454,-0.00013772,-0.00004196,0.00001434,0.00005170,0.0017
 7934,0.00159731,-0.00039335,-0.00020826,0.00016684,-0.00012049,-0.0000
 6328,0.00013179,-0.00016293,0.00008051,-0.00017467,0.00013682,-0.00004
 226,0.00001285,-0.00005202,-0.00150589,-0.00058720,0.00078051,-0.00075
 099,-0.00011923,-0.00018202,0.00116726,0.00059255,-0.00025228,-0.00004
 328,-0.00009879,0.00006630,0.00887526,-0.00498876,-0.00016515,0.001823
 30,0.00162769,0.00031973,-0.00085646,-0.00090492,0.00002397,0.00122282
 ,0.00001485,0.00072958,0.00119484,-0.00001988,-0.00078579,0.00021510,-
 0.00006013,-0.00001687,-0.00077502,0.00021360,0.00001426,-0.00160674,0
 .00095965,0.00003313,-0.00003449,0.00023989,0.00023716,-0.00161045,0.0
 0100989,0.00001849,-0.00003647,0.00022492,-0.00023044,-0.56485212,-0.7
 7412892,0.01037955,0.60877448,0.80258491,0.00018607,0.00001841,-0.0000
 7405,0.00031656,0.00013564,0.00011762,-0.00022279,-0.00013684,-0.00002
 767,0.00000693,0.00001126,0.00000682,0.00001246,0.00000563,0.00000739,
 0.00000447,0.00000965,0.00000510,-0.00000212,-0.00001476,-0.00000284,-
 0.00000284,0.00000002,-0.00000213,-0.00042639,-0.00031974,0.00008945,0
 .00000285,-0.00001440,0.00001034,-0.00000902,-0.00000912,0.00001294,-0
 .00000177,0.00001989,-0.00000767,0.00000396,-0.00000050,-0.00000078,-0
 .00027166,-0.00012141,0.00012281,-0.00017001,-0.00001407,-0.00005832,0
 .00018853,0.00011479,-0.00003844,-0.00000614,-0.00000851,0.00000639,-0
 .00009851,0.00005533,0.00044929,0.00042310,0.00028445,0.00007217,0.000
 00594,0.00001031,-0.00008280,0.00009033,-0.00001902,0.00009129,-0.0001
 0401,0.00000808,0.00010928,-0.00000511,0.00000159,0.00007576,0.0000079
 0,-0.00000579,-0.00001205,-0.00024030,0.00014648,-0.00006234,-0.000028
 20,0.00003058,0.00001128,0.00025464,-0.00012899,-0.00008788,0.00002316
 ,-0.00003571,0.00001720,0.00821701,0.01032121,-0.07045514,-0.00882444,
 -0.01112446,0.03673283,-0.00035651,-0.00058373,-0.00012791,-0.00300616
 ,-0.00219154,-0.00186246,0.00077579,0.00071303,0.00023676,-0.00008695,
 -0.00022602,-0.00019720,-0.00035041,0.00015079,0.00051664,-0.00049152,
 0.00027576,0.00038979,0.00032995,-0.00021480,-0.00038942,-0.00011851,0
 .00003223,0.00013740,-0.00152934,0.00734029,-0.00481797,-0.00051765,0.
 00026849,-0.00036757,-0.00038167,0.00015044,-0.00049575,0.00034688,-0.
 00020731,0.00037876,-0.00012076,0.00002822,-0.00013604,-0.00283110,-0.
 00210899,0.00197988,-0.00031888,-0.00059978,0.00020009,0.00071226,0.00
 067979,-0.00032010,-0.00007225,-0.00021443,0.00020907,0.00377527,0.002
 06264,0.00008745,-0.00122759,0.00723258,0.00476111,-0.00034160,-0.0013
 5336,-0.00000388,0.00043151,0.00131661,0.00086806,0.00035796,0.0012890
 4,-0.00089065,-0.00002729,0.00067415,-0.00002493,-0.00075742,-0.000184
 62,0.00001789,-0.00115103,-0.00184988,-0.00082029,0.00013153,0.0006794
 1,0.00049696,-0.00108730,-0.00179624,0.00089986,0.00010690,0.00065913,
 -0.00050935,-0.33228803,-0.32683834,0.00468651,-0.00576969,-0.05137754
 ,0.00066937,0.34586359,-0.00122453,-0.00012090,0.00027124,-0.00266720,
 -0.00118837,-0.00121754,0.00159472,0.00088651,0.00028750,-0.00002494,-
 0.00012741,-0.00005997,-0.00018820,0.00017004,0.00022096,-0.00027052,0
 .00022722,0.00023145,0.00016280,-0.00022666,-0.00021798,-0.00005591,0.
 00001746,0.00007348,0.00181929,0.00003819,0.00052277,-0.00028997,0.000
 22116,-0.00021908,-0.00020349,0.00017008,-0.00020924,0.00017194,-0.000
 22238,0.00021362,-0.00005635,0.00001529,-0.00007356,-0.00259806,-0.001
 17450,0.00136994,-0.00123393,-0.00012520,-0.00017791,0.00157764,0.0008
 5440,-0.00041936,-0.00002016,-0.00012234,0.00006576,0.01361023,-0.0047
 9906,-0.00038825,0.00178433,0.00009000,-0.00053595,-0.00062215,-0.0010
 4326,0.00000619,0.00066521,0.00060302,0.00064551,0.00060818,0.00059405
 ,-0.00066812,0.00069898,-0.00024927,-0.00002463,-0.00081763,0.00037078
 ,0.00001500,-0.00068984,-0.00059499,-0.00078562,0.00002306,0.00025278,
 0.00034248,-0.00065603,-0.00058873,0.00082204,0.00001174,0.00023672,-0
 .00034129,-0.33109426,-0.49179705,0.00577254,-0.04620898,-0.02821121,0
 .00078000,0.36619400,0.52584363,-0.00041655,0.00004475,0.00019396,-0.0
 0102014,-0.00068276,-0.00029505,0.00043076,0.00023663,0.00002886,-0.00
 001132,-0.00000383,-0.00001220,0.00003287,-0.00000378,0.00003792,0.000
 02626,0.00000373,0.00002299,-0.00002374,-0.00000325,0.00001164,-0.0000
 0504,0.00000014,-0.00000567,-0.00203610,0.00340143,-0.00164999,-0.0000
 0563,-0.00001296,0.00004093,-0.00001392,-0.00000284,0.00005384,0.00001
 033,0.00001297,-0.00000469,0.00000900,-0.00000125,-0.00000077,0.001138
 67,0.00078340,-0.00046217,0.00043531,-0.00002870,0.00015525,-0.0004624
 6,-0.00023827,0.00007406,0.00001382,0.00001069,-0.00002062,0.00003352,
 -0.00021032,-0.00185957,0.00199274,-0.00364435,-0.00186586,-0.00001390
 ,0.00002562,-0.00073064,0.00090582,-0.00064191,0.00039857,-0.00089450,
 0.00058688,0.00044626,-0.00002208,-0.00002013,-0.00033582,0.00003545,-
 0.00001572,0.00015707,-0.00030504,0.00126468,0.00021038,0.00000954,-0.
 00010994,-0.00006695,0.00035900,-0.00116449,0.00018564,-0.00001629,0.0
 0008285,-0.00004879,0.00469461,0.00573908,-0.06595735,0.00069109,0.000
 89366,0.03297415,-0.00557208,-0.00630201,0.03832460\\-0.00002237,-0.00
 000208,-0.00000643,-0.00001401,0.00001023,-0.00000905,0.00002523,0.000
 00944,-0.00000329,0.00000251,0.00000376,-0.00000213,0.00000348,0.00000
 042,-0.00001244,0.00000851,-0.00001779,0.00000932,0.00000096,0.0000005
 4,0.00000275,0.00000671,-0.00000342,0.00000609,0.00000532,-0.00001764,
 -0.00001193,0.00001302,0.00001619,-0.00000680,0.00001313,-0.00000537,-
 0.00002526,-0.00000330,-0.00001019,-0.00000018,0.00000192,-0.00000051,
 -0.00000483,0.00000634,0.00000733,-0.00000154,0.00000806,0.00001921,0.
 00001347,-0.00000707,-0.00000300,-0.00000158,-0.00000217,0.00000289,0.
 00000180,0.00000940,0.00000367,-0.00000804,-0.00000229,0.00001329,0.00
 000405,-0.00000537,0.00002069,0.00002021,-0.00001453,-0.00001660,0.000
 01825,-0.00000680,0.00000173,0.00000139,-0.00000040,-0.00002774,0.0000
 1549,-0.00000902,-0.00001157,-0.00000248,0.00000041,-0.00000334,-0.000
 00041,-0.00000675,-0.00000181,0.00000752,-0.00001161,0.00000296,-0.000
 00190,-0.00000480,-0.00000513,-0.00000601,-0.00003511,-0.00003433,-0.0
 0000902,0.00004811,0.00006378,0.00000489,-0.00000752,-0.00001560,0.000
 00811\\\@
 The archive entry for this job was punched.


 THERE'S SMALL CHOICE IN A BOWL OF ROTTEN APPLES.
                     SHAKESPEARE
 Job cpu time:       0 days 22 hours 30 minutes 50.3 seconds.
 Elapsed time:       0 days 11 hours 18 minutes 19.9 seconds.
 File lengths (MBytes):  RWF=   4364 Int=      0 D2E=      0 Chk=    129 Scr=      1
 Normal termination of Gaussian 16 at Mon Jan 23 16:03:53 2023.
