 Entering Gaussian System, Link 0=g16
 Input=FeFeFe-A-0xH2O-freq.gjf
 Output=FeFeFe-A-0xH2O-freq.log
 AtFile(1): /zfs/curium/svicchi/00-MOF/01-Gaussian/zw-basis-set/def2-TZVP/H.gbs
            !----------------------------------------------------------------------
            ! Basis Set Exchange
            ! Version v0.9
            ! https://www.basissetexchange.org
            !----------------------------------------------------------------------
            !   Basis set: def2-TZVP
            ! Description: def2-TZVP
            !        Role: orbital
            !     Version: 1  (Data from Turbomole 7.3)
            !----------------------------------------------------------------------
            H     0
            S    3   1.00
                 34.0613410              0.60251978D-02
                  5.1235746              0.45021094D-01
                  1.1646626              0.20189726
            S    1   1.00
                  0.32723041             1.0000000
            S    1   1.00
                  0.10307241             1.0000000
            P    1   1.00
                  0.8000000              1.0000000
 AtFile(1): /zfs/curium/svicchi/00-MOF/01-Gaussian/zw-basis-set/def2-TZVP/O.gbs
            !----------------------------------------------------------------------
            ! Basis Set Exchange
            ! Version v0.9
            ! https://www.basissetexchange.org
            !----------------------------------------------------------------------
            !   Basis set: def2-TZVP
            ! Description: def2-TZVP
            !        Role: orbital
            !     Version: 1  (Data from Turbomole 7.3)
            !----------------------------------------------------------------------
            O     0
            S    6   1.00
              27032.3826310              0.21726302465D-03
               4052.3871392              0.16838662199D-02
                922.32722710             0.87395616265D-02
                261.24070989             0.35239968808D-01
                 85.354641351            0.11153519115
                 31.035035245            0.25588953961
            S    2   1.00
                 12.260860728            0.39768730901
                  4.9987076005           0.24627849430
            S    1   1.00
                  1.1703108158           1.0000000
            S    1   1.00
                  0.46474740994          1.0000000
            S    1   1.00
                  0.18504536357          1.0000000
            P    4   1.00
                 63.274954801            0.60685103418D-02
                 14.627049379            0.41912575824D-01
                  4.4501223456           0.16153841088
                  1.5275799647           0.35706951311
            P    1   1.00
                  0.52935117943           .44794207502
            P    1   1.00
                  0.17478421270           .24446069663
            D    1   1.00
                  2.31400000             1.0000000
            D    1   1.00
                  0.64500000             1.0000000
            F    1   1.00
                  1.42800000             1.0000000
 AtFile(1): /zfs/curium/svicchi/00-MOF/01-Gaussian/zw-basis-set/def2-TZVP/C.gbs
            !----------------------------------------------------------------------
            ! Basis Set Exchange
            ! Version v0.9
            ! https://www.basissetexchange.org
            !----------------------------------------------------------------------
            !   Basis set: def2-TZVP
            ! Description: def2-TZVP
            !        Role: orbital
            !     Version: 1  (Data from Turbomole 7.3)
            !----------------------------------------------------------------------
            C     0
            S    6   1.00
              13575.3496820              0.22245814352D-03
               2035.2333680              0.17232738252D-02
                463.22562359             0.89255715314D-02
                131.20019598             0.35727984502D-01
                 42.853015891            0.11076259931
                 15.584185766            0.24295627626
            S    2   1.00
                  6.2067138508           0.41440263448
                  2.5764896527           0.23744968655
            S    1   1.00
                  0.57696339419          1.0000000
            S    1   1.00
                  0.22972831358          1.0000000
            S    1   1.00
                  0.95164440028D-01      1.0000000
            P    4   1.00
                 34.697232244            0.53333657805D-02
                  7.9582622826           0.35864109092D-01
                  2.3780826883           0.14215873329
                  0.81433208183          0.34270471845
            P    1   1.00
                  0.28887547253           .46445822433
            P    1   1.00
                  0.10056823671           .24955789874
            D    1   1.00
                  1.09700000             1.0000000
            D    1   1.00
                  0.31800000             1.0000000
            F    1   1.00
                  0.76100000             1.0000000
 AtFile(1): /zfs/curium/svicchi/00-MOF/01-Gaussian/zw-basis-set/def2-TZVP/Fe.gbs
            !----------------------------------------------------------------------
            ! Basis Set Exchange
            ! Version v0.9
            ! https://www.basissetexchange.org
            !----------------------------------------------------------------------
            !   Basis set: def2-TZVP
            ! Description: def2-TZVP
            !        Role: orbital
            !     Version: 1  (Data from Turbomole 7.3)
            !----------------------------------------------------------------------
            Fe     0
            S    8   1.00
             300784.8463700              0.22806273096D-03
              45088.9705570              0.17681788761D-02
              10262.5163170              0.91927083490D-02
               2905.2897293              0.37355495807D-01
                946.11487137             0.12151108426
                339.87832894             0.28818881468
                131.94425588             0.41126612677
                 52.111494077            0.21518583573
            S    4   1.00
                329.48839267            -0.24745216477D-01
                101.92332739            -0.11683089050
                 16.240462745            0.55293621136
                  6.8840675801           0.53601640182
            S    2   1.00
                 10.470693782           -0.22912708577
                  1.7360039648           0.71159319984
            S    1   1.00
                  0.72577288979          1.0000000
            S    1   1.00
                  0.11595528203          1.0000000
            S    1   1.00
                  0.41968227746D-01      1.0000000
            P    6   1.00
               1585.3959970              0.23793960179D-02
                375.38006499             0.19253154755D-01
                120.31816501             0.90021836536D-01
                 44.788749031            0.25798172356
                 17.829278584            0.41492649744
                  7.2247153786           0.24207474784
            P    3   1.00
                 28.143219756           -0.29041755152D-01
                  3.8743241412           0.55312260343
                  1.5410752281           0.96771136842
            P    1   1.00
                  0.58285615250          1.0000000
            P    1   1.00
                  0.1349150              1.0000000
            D    4   1.00
                 61.996675034            0.11971972255D-01
                 17.873732552            0.73210135410D-01
                  6.2744782934           0.23103094314
                  2.3552337175           0.39910706494
            D    1   1.00
                  0.85432239901           .41391589765
            D    1   1.00
                  0.27869254413           .21909269782
            D    1   1.00
                  0.0910000              1.0000000
            F    1   1.00
                  1.5980000              1.0000000
 Initial command:
 /software/commercial/gaussian/g16/AVX2/g16/l1.exe "/scratch1/svicchi/G09-55811.pbs02/Gau-709412.inp" -scrdir="/scratch1/svicchi/G09-55811.pbs02/"
 Entering Link 1 = /software/commercial/gaussian/g16/AVX2/g16/l1.exe PID=    709413.
  
 Copyright (c) 1988-2021, Gaussian, Inc.  All Rights Reserved.
  
 This is part of the Gaussian(R) 16 program.  It is based on
 the Gaussian(R) 09 system (copyright 2009, Gaussian, Inc.),
 the Gaussian(R) 03 system (copyright 2003, Gaussian, Inc.),
 the Gaussian(R) 98 system (copyright 1998, Gaussian, Inc.),
 the Gaussian(R) 94 system (copyright 1995, Gaussian, Inc.),
 the Gaussian 92(TM) system (copyright 1992, Gaussian, Inc.),
 the Gaussian 90(TM) system (copyright 1990, Gaussian, Inc.),
 the Gaussian 88(TM) system (copyright 1988, Gaussian, Inc.),
 the Gaussian 86(TM) system (copyright 1986, Carnegie Mellon
 University), and the Gaussian 82(TM) system (copyright 1983,
 Carnegie Mellon University). Gaussian is a federally registered
 trademark of Gaussian, Inc.
  
 This software contains proprietary and confidential information,
 including trade secrets, belonging to Gaussian, Inc.
  
 This software is provided under written license and may be
 used, copied, transmitted, or stored only in accord with that
 written license.
  
 The following legend is applicable only to US Government
 contracts under FAR:
  
                    RESTRICTED RIGHTS LEGEND
  
 Use, reproduction and disclosure by the US Government is
 subject to restrictions as set forth in subparagraphs (a)
 and (c) of the Commercial Computer Software - Restricted
 Rights clause in FAR 52.227-19.
  
 Gaussian, Inc.
 340 Quinnipiac St., Bldg. 40, Wallingford CT 06492
  
  
 ---------------------------------------------------------------
 Warning -- This program may not be used in any manner that
 competes with the business of Gaussian, Inc. or will provide
 assistance to any competitor of Gaussian, Inc.  The licensee
 of this program is prohibited from giving any competitor of
 Gaussian, Inc. access to this program.  By using this program,
 the user acknowledges that Gaussian, Inc. is engaged in the
 business of creating and licensing software in the field of
 computational chemistry and represents and warrants to the
 licensee that it is not a competitor of Gaussian, Inc. and that
 it will not use this program in any manner prohibited above.
 ---------------------------------------------------------------
  

 Cite this work as:
 Gaussian 16, Revision C.02,
 M. J. Frisch, G. W. Trucks, H. B. Schlegel, G. E. Scuseria, 
 M. A. Robb, J. R. Cheeseman, G. Scalmani, V. Barone, 
 G. A. Petersson, H. Nakatsuji, X. Li, M. Caricato, A. V. Marenich, 
 J. Bloino, B. G. Janesko, R. Gomperts, B. Mennucci, H. P. Hratchian, 
 J. V. Ortiz, A. F. Izmaylov, J. L. Sonnenberg, D. Williams-Young, 
 F. Ding, F. Lipparini, F. Egidi, J. Goings, B. Peng, A. Petrone, 
 T. Henderson, D. Ranasinghe, V. G. Zakrzewski, J. Gao, N. Rega, 
 G. Zheng, W. Liang, M. Hada, M. Ehara, K. Toyota, R. Fukuda, 
 J. Hasegawa, M. Ishida, T. Nakajima, Y. Honda, O. Kitao, H. Nakai, 
 T. Vreven, K. Throssell, J. A. Montgomery, Jr., J. E. Peralta, 
 F. Ogliaro, M. J. Bearpark, J. J. Heyd, E. N. Brothers, K. N. Kudin, 
 V. N. Staroverov, T. A. Keith, R. Kobayashi, J. Normand, 
 K. Raghavachari, A. P. Rendell, J. C. Burant, S. S. Iyengar, 
 J. Tomasi, M. Cossi, J. M. Millam, M. Klene, C. Adamo, R. Cammi, 
 J. W. Ochterski, R. L. Martin, K. Morokuma, O. Farkas, 
 J. B. Foresman, and D. J. Fox, Gaussian, Inc., Wallingford CT, 2019.
 
 ******************************************
 Gaussian 16:  ES64L-G16RevC.02  7-Dec-2021
                21-Jan-2023 
 ******************************************
 %NProcShared=2
 Will use up to    2 processors via shared memory.
 %mem=110gb
 %chk=/scratch1/svicchi/G09-55811.pbs02/02-freq/FeFeFe-A-0xH2O-freq.chk
 ----------------------------------------------------------------------
 #p freq=raman scale=0.967 guess=read geom=allcheck gen um06l int=grid=
 ultrafine scf=(xqc,intrep,maxconventionalcycle=150) pop=(hirshfeld) no
 symm
 ----------------------------------------------------------------------
 1/10=4,29=7,30=1,38=1,114=967000/1,3;
 2/12=2,15=1,40=1/2;
 3/5=7,11=2,14=-4,25=1,30=1,71=2,74=-53,75=-5,116=2,140=1/1,2,3;
 4/5=1/1;
 5/5=2,8=3,13=1,17=20,38=6,85=150,98=1/2,8;
 8/6=4,10=90,11=11/1;
 10/13=10,15=4,31=1/2;
 11/6=3,8=1,9=11,15=111,16=1,31=1/1,2,10;
 10/6=1,31=1/2;
 6/7=2,8=2,9=2,10=2,28=1,79=1/1;
 7/8=1,10=1,25=1,30=1/1,2,3,16;
 1/10=4,30=1/3;
 99//99;
 Leave Link    1 at Sat Jan 21 16:51:09 2023, MaxMem= 14763950080 cpu:               0.0 elap:               0.2
 (Enter /software/commercial/gaussian/g16/AVX2/g16/l101.exe)
 Structure from the checkpoint file:  "/scratch1/svicchi/G09-55811.pbs02/02-freq/FeFeFe-A-0xH2O-freq.chk"
 --------------
 FeFeFe-A-0xH2O
 --------------
 Charge =  0 Multiplicity =15
 No Z-Matrix found in chk file; cartesian coordinates used.
  O                                                -1.396530535900     -2.155053668200      1.497463409200
  O                                                -1.424929947800     -0.157920218100      2.556757216000
  C                                                -1.805663158200     -1.333357732900      2.354770590800
  H                                                -2.611139823600     -1.698287376800      3.015172571600
  O                                                 1.422169433100     -0.172776606600     -2.448307975000
  O                                                 1.404243291500     -2.165442677100     -1.387375375500
  C                                                 1.812327532700     -1.345288486000     -2.246529163600
  H                                                 2.621336913500     -1.706173551000     -2.904090707500
  O                                                -1.428899418000      2.343625706100      1.186473538000
  O                                                -1.403562858100     -2.165307124600     -1.387572278000
  O                                                -1.422998602300     -0.172362922600     -2.447964967100
  C                                                -1.812500488200     -1.345105901400     -2.246279413800
  H                                                -2.621699381200     -1.706195274400     -2.903496623700
  O                                                 1.425112370600     -0.157194806200      2.556693752400
  O                                                 1.397382094800     -2.154305542500      1.497360668900
  C                                                 1.806221903800     -1.332524996000      2.354699920000
  H                                                 2.611813123200     -1.697184247500      3.015110605000
  Fe                                               -0.000142986400      0.971642646100      1.624782043000
  O                                                 1.428198548600      2.344050002400      1.186026051100
  Fe                                               -0.000136422400      0.952927878000     -1.522872888500
  O                                                 1.423595106900      2.330128124700     -1.070103353900
  O                                                -1.423503945100      2.330456754100     -1.069656997800
  Fe                                                0.000254998800     -1.941619777000      0.045888528400
  O                                                -0.000152138200     -0.071914987500      0.072147896200
  C                                                 1.815220274200      2.721515147600      0.054422244100
  H                                                 2.604057214900      3.492625268800      0.048831474800
  C                                                -1.815568952400      2.721425035400      0.054846494400
  H                                                -2.604489027400      3.492449071900      0.049250759800
 Recover connectivity data from disk.
 ITRead=  0  0  0  0  0  0  0  0  0  0  0  0  0  0  0  0  0  0  0  0
 ITRead=  0  0  0  0  0  0  0  0
 MicOpt= -1 -1 -1 -1 -1 -1 -1 -1 -1 -1 -1 -1 -1 -1 -1 -1 -1 -1 -1 -1
 MicOpt= -1 -1 -1 -1 -1 -1 -1 -1
 NAtoms=     28 NQM=       28 NQMF=       0 NMMI=      0 NMMIF=      0
                NMic=       0 NMicF=      0.
                    Isotopes and Nuclear Properties:
 (Nuclear quadrupole moments (NQMom) in fm**2, nuclear magnetic moments (NMagM)
  in nuclear magnetons)

  Atom         1           2           3           4           5           6           7           8           9          10
 IAtWgt=          16          16          12           1          16          16          12           1          16          16
 AtmWgt=  15.9949146  15.9949146  12.0000000   1.0078250  15.9949146  15.9949146  12.0000000   1.0078250  15.9949146  15.9949146
 NucSpn=           0           0           0           1           0           0           0           1           0           0
 AtZEff=   5.6000000   5.6000000   3.6000000   1.0000000   5.6000000   5.6000000   3.6000000   1.0000000   5.6000000   5.6000000
 NQMom=    0.0000000   0.0000000   0.0000000   0.0000000   0.0000000   0.0000000   0.0000000   0.0000000   0.0000000   0.0000000
 NMagM=    0.0000000   0.0000000   0.0000000   2.7928460   0.0000000   0.0000000   0.0000000   2.7928460   0.0000000   0.0000000
 AtZNuc=   8.0000000   8.0000000   6.0000000   1.0000000   8.0000000   8.0000000   6.0000000   1.0000000   8.0000000   8.0000000

  Atom        11          12          13          14          15          16          17          18          19          20
 IAtWgt=          16          12           1          16          16          12           1          56          16          56
 AtmWgt=  15.9949146  12.0000000   1.0078250  15.9949146  15.9949146  12.0000000   1.0078250  55.9349393  15.9949146  55.9349393
 NucSpn=           0           0           1           0           0           0           1           0           0           0
 AtZEff=   5.6000000   3.6000000   1.0000000   5.6000000   5.6000000   3.6000000   1.0000000  25.2200000   5.6000000  25.2200000
 NQMom=    0.0000000   0.0000000   0.0000000   0.0000000   0.0000000   0.0000000   0.0000000   0.0000000   0.0000000   0.0000000
 NMagM=    0.0000000   0.0000000   2.7928460   0.0000000   0.0000000   0.0000000   2.7928460   0.0000000   0.0000000   0.0000000
 AtZNuc=   8.0000000   6.0000000   1.0000000   8.0000000   8.0000000   6.0000000   1.0000000  26.0000000   8.0000000  26.0000000

  Atom        21          22          23          24          25          26          27          28
 IAtWgt=          16          16          56          16          12           1          12           1
 AtmWgt=  15.9949146  15.9949146  55.9349393  15.9949146  12.0000000   1.0078250  12.0000000   1.0078250
 NucSpn=           0           0           0           0           0           1           0           1
 AtZEff=   5.6000000   5.6000000  25.2200000   5.6000000   3.6000000   1.0000000   3.6000000   1.0000000
 NQMom=    0.0000000   0.0000000   0.0000000   0.0000000   0.0000000   0.0000000   0.0000000   0.0000000
 NMagM=    0.0000000   0.0000000   0.0000000   0.0000000   0.0000000   2.7928460   0.0000000   2.7928460
 AtZNuc=   8.0000000   8.0000000  26.0000000   8.0000000   6.0000000   1.0000000   6.0000000   1.0000000
 Leave Link  101 at Sat Jan 21 16:51:09 2023, MaxMem= 14763950080 cpu:               0.1 elap:               0.2
 (Enter /software/commercial/gaussian/g16/AVX2/g16/l103.exe)

 GradGradGradGradGradGradGradGradGradGradGradGradGradGradGradGradGradGrad
 Berny optimization.
 Initialization pass.
 Trust Radius=3.00D-01 FncErr=1.00D-07 GrdErr=1.00D-07 EigMax=2.50D+02 EigMin=1.00D-04
 Number of steps in this run=      2 maximum allowed number of steps=      2.
 GradGradGradGradGradGradGradGradGradGradGradGradGradGradGradGradGradGrad

 Leave Link  103 at Sat Jan 21 16:51:09 2023, MaxMem= 14763950080 cpu:               0.1 elap:               0.1
 (Enter /software/commercial/gaussian/g16/AVX2/g16/l202.exe)
                          Input orientation:                          
 ---------------------------------------------------------------------
 Center     Atomic      Atomic             Coordinates (Angstroms)
 Number     Number       Type             X           Y           Z
 ---------------------------------------------------------------------
      1          8           0       -1.396531   -2.155054    1.497463
      2          8           0       -1.424930   -0.157920    2.556757
      3          6           0       -1.805663   -1.333358    2.354771
      4          1           0       -2.611140   -1.698287    3.015173
      5          8           0        1.422169   -0.172777   -2.448308
      6          8           0        1.404243   -2.165443   -1.387375
      7          6           0        1.812328   -1.345288   -2.246529
      8          1           0        2.621337   -1.706174   -2.904091
      9          8           0       -1.428899    2.343626    1.186474
     10          8           0       -1.403563   -2.165307   -1.387572
     11          8           0       -1.422999   -0.172363   -2.447965
     12          6           0       -1.812500   -1.345106   -2.246279
     13          1           0       -2.621699   -1.706195   -2.903497
     14          8           0        1.425112   -0.157195    2.556694
     15          8           0        1.397382   -2.154306    1.497361
     16          6           0        1.806222   -1.332525    2.354700
     17          1           0        2.611813   -1.697184    3.015111
     18         26           0       -0.000143    0.971643    1.624782
     19          8           0        1.428199    2.344050    1.186026
     20         26           0       -0.000136    0.952928   -1.522873
     21          8           0        1.423595    2.330128   -1.070103
     22          8           0       -1.423504    2.330457   -1.069657
     23         26           0        0.000255   -1.941620    0.045889
     24          8           0       -0.000152   -0.071915    0.072148
     25          6           0        1.815220    2.721515    0.054422
     26          1           0        2.604057    3.492625    0.048831
     27          6           0       -1.815569    2.721425    0.054846
     28          1           0       -2.604489    3.492449    0.049251
 ---------------------------------------------------------------------
                    Distance matrix (angstroms):
                    1          2          3          4          5
     1  O    0.000000
     2  O    2.260852   0.000000
     3  C    1.256005   1.251962   0.000000
     4  H    1.996836   1.997491   1.103674   0.000000
     5  O    5.238664   5.758201   5.902153   6.960200   0.000000
     6  O    4.020788   5.252671   4.999952   5.976953   2.257569
     7  C    4.996996   5.912803   5.853372   6.883108   1.252087
     8  H    5.976490   6.970669   6.884253   7.900415   1.999262
     9  O    4.509532   2.852267   3.876477   4.591176   5.260467
    10  O    2.885062   4.425810   3.854731   4.589173   3.616642
    11  O    4.415673   5.004743   4.955866   5.795343   2.845168
    12  C    3.852876   4.962739   4.601070   5.333427   3.446485
    13  H    4.590312   5.800326   5.334257   5.918684   4.348729
    14  O    3.615948   2.850042   3.444132   4.344710   5.005027
    15  O    2.793913   3.615705   3.415934   4.310447   4.415356
    16  C    3.415996   3.443961   3.611885   4.481416   4.955946
    17  H    4.310420   4.344504   4.481352   5.222953   5.795517
    18  Fe   3.426710   2.043161   3.017584   3.984848   4.463489
    19  O    5.321468   4.034737   5.034596   6.000210   4.420728
    20  Fe   4.553229   4.461771   4.850067   5.868572   2.036319
    21  O    5.887475   5.240095   5.964813   7.014036   2.857268
    22  O    5.168234   4.398057   5.029541   5.858933   4.032953
    23  Fe   2.025743   3.393700   2.993703   3.961722   3.372190
    24  O    2.884591   2.865427   3.171983   4.257198   2.895837
    25  C    6.014868   5.005138   5.902914   6.920503   3.846436
    26  H    7.071033   5.987396   6.932034   7.933665   4.589960
    27  C    5.102625   3.834421   4.661653   5.378691   5.012498
    28  H    5.954055   4.583028   5.407583   5.978334   5.990464
                    6          7          8          9         10
     6  O    0.000000
     7  C    1.255918   0.000000
     8  H    1.998167   1.103232   0.000000
     9  O    5.914651   5.991590   7.038324   0.000000
    10  O    2.807806   3.428147   4.325558   5.191997   0.000000
    11  O    3.618082   3.447269   4.349399   4.420337   2.257573
    12  C    3.429010   3.624828   4.496888   5.053482   1.255921
    13  H    4.326401   4.496938   5.243036   5.878068   1.998166
    14  O    4.425966   4.963109   5.800901   4.034475   5.252728
    15  O    2.884766   3.852713   4.590388   5.321269   4.020976
    16  C    3.854668   4.601251   5.334689   5.034367   5.000085
    17  H    4.589049   5.333654   5.919216   5.999951   5.977123
    18  Fe   4.570197   4.862126   5.878226   2.028743   4.569937
    19  O    5.192157   5.053831   5.878516   2.857098   5.914100
    20  Fe   3.422700   3.015046   3.981294   3.363921   3.422178
    21  O    4.506794   3.878631   4.592366   3.637176   5.320014
    22  O    5.320734   5.036540   6.001689   2.256175   4.507035
    23  Fe   2.018793   2.982348   3.953212   4.659050   2.018799
    24  O    2.912970   3.206685   4.289639   3.019582   2.912496
    25  C    5.111755   4.672609   5.385819   3.456682   6.026686
    26  H    5.959528   5.413033   5.978926   4.345017   7.080711
    27  C    6.027327   5.915752   6.931455   1.254123   5.111797
    28  H    7.081354   6.941367   7.940854   1.998770   5.959605
                   11         12         13         14         15
    11  O    0.000000
    12  C    1.252084   0.000000
    13  H    1.999258   1.103233   0.000000
    14  O    5.758348   5.912852   6.970636   0.000000
    15  O    5.239107   4.997298   5.976735   2.260842   0.000000
    16  C    5.902494   5.853573   6.884384   1.251977   1.255987
    17  H    6.960602   6.883367   7.900610   1.997491   1.996839
    18  Fe   4.463243   4.861798   5.877813   2.043058   3.426495
    19  O    5.259995   5.991054   7.037781   2.852186   4.509222
    20  Fe   2.036323   3.014787   3.981162   4.461678   4.552996
    21  O    4.032872   5.036174   6.001470   4.397776   5.167466
    22  O    2.857243   3.878855   4.592733   5.239604   5.887280
    23  Fe   3.372718   2.982607   3.953346   3.393897   2.025826
    24  O    2.895782   3.206357   4.289271   2.865592   2.884560
    25  C    5.012238   5.915318   6.931101   3.834125   5.101989
    26  H    5.990268   6.940977   7.940561   4.582627   5.953329
    27  C    3.846061   4.672458   5.385672   5.004768   6.014703
    28  H    4.589428   5.412822   5.978705   5.987058   7.070915
                   16         17         18         19         20
    16  C    0.000000
    17  H    1.103674   0.000000
    18  Fe   3.017436   3.984716   0.000000
    19  O    3.876326   4.591086   2.028834   0.000000
    20  Fe   4.849927   5.868447   3.147711   3.363554   0.000000
    21  O    5.028987   5.858334   3.336903   2.256177   2.031918
    22  O    5.964460   7.013630   3.336515   3.636000   2.031986
    23  Fe   2.993848   3.961851   3.313609   4.658959   3.292327
    24  O    3.172092   4.257334   1.870745   3.019569   1.895889
    25  C    4.661180   5.378210   2.970459   1.254110   2.985177
    26  H    5.407000   5.977708   3.952320   1.998770   3.962593
    27  C    5.902644   6.920187   2.970220   3.456010   2.985394
    28  H    6.931799   7.933374   3.952136   4.344381   3.962751
                   21         22         23         24         25
    21  O    0.000000
    22  O    2.847099   0.000000
    23  Fe   4.638875   4.639199   0.000000
    24  O    3.016887   3.016793   1.869889   0.000000
    25  C    1.253440   3.450480   5.003898   3.331538   0.000000
    26  H    1.999226   4.338537   6.025845   4.414566   1.103135
    27  C    3.451204   1.253427   5.004127   3.331484   3.630789
    28  H    4.339286   1.999226   6.026094   4.414497   4.486446
                   26         27         28
    26  H    0.000000
    27  C    4.486411   0.000000
    28  H    5.208546   1.103134   0.000000
 Symmetry turned off by external request.
 Stoichiometry    C6H6Fe3O13(15)
 Framework group  C1[X(C6H6Fe3O13)]
 Deg. of freedom    78
 Full point group                 C1      NOp   1
 Rotational constants (GHZ):           0.2740612           0.2621956           0.2066148
 Leave Link  202 at Sat Jan 21 16:51:10 2023, MaxMem= 14763950080 cpu:               0.1 elap:               0.1
 (Enter /software/commercial/gaussian/g16/AVX2/g16/l301.exe)
 General basis read from cards:  (5D, 7F)
 Centers:       4      8     13     17     26     28
 S 3 1.00
     Exponent=  3.4061341000D+01 Coefficients=  6.0251978000D-03
     Exponent=  5.1235746000D+00 Coefficients=  4.5021094000D-02
     Exponent=  1.1646626000D+00 Coefficients=  2.0189726000D-01
 S 1 1.00
     Exponent=  3.2723041000D-01 Coefficients=  1.0000000000D+00
 S 1 1.00
     Exponent=  1.0307241000D-01 Coefficients=  1.0000000000D+00
 P 1 1.00
     Exponent=  8.0000000000D-01 Coefficients=  1.0000000000D+00
 ****
 Centers:       1      2      5      6      9     10     11     14     15     19
 Centers:      21     22     24
 S 6 1.00
     Exponent=  2.7032382631D+04 Coefficients=  2.1726302465D-04
     Exponent=  4.0523871392D+03 Coefficients=  1.6838662199D-03
     Exponent=  9.2232722710D+02 Coefficients=  8.7395616265D-03
     Exponent=  2.6124070989D+02 Coefficients=  3.5239968808D-02
     Exponent=  8.5354641351D+01 Coefficients=  1.1153519115D-01
     Exponent=  3.1035035245D+01 Coefficients=  2.5588953961D-01
 S 2 1.00
     Exponent=  1.2260860728D+01 Coefficients=  3.9768730901D-01
     Exponent=  4.9987076005D+00 Coefficients=  2.4627849430D-01
 S 1 1.00
     Exponent=  1.1703108158D+00 Coefficients=  1.0000000000D+00
 S 1 1.00
     Exponent=  4.6474740994D-01 Coefficients=  1.0000000000D+00
 S 1 1.00
     Exponent=  1.8504536357D-01 Coefficients=  1.0000000000D+00
 P 4 1.00
     Exponent=  6.3274954801D+01 Coefficients=  6.0685103418D-03
     Exponent=  1.4627049379D+01 Coefficients=  4.1912575824D-02
     Exponent=  4.4501223456D+00 Coefficients=  1.6153841088D-01
     Exponent=  1.5275799647D+00 Coefficients=  3.5706951311D-01
 P 1 1.00
     Exponent=  5.2935117943D-01 Coefficients=  4.4794207502D-01
 P 1 1.00
     Exponent=  1.7478421270D-01 Coefficients=  2.4446069663D-01
 D 1 1.00
     Exponent=  2.3140000000D+00 Coefficients=  1.0000000000D+00
 D 1 1.00
     Exponent=  6.4500000000D-01 Coefficients=  1.0000000000D+00
 F 1 1.00
     Exponent=  1.4280000000D+00 Coefficients=  1.0000000000D+00
 ****
 Centers:       3      7     12     16     25     27
 S 6 1.00
     Exponent=  1.3575349682D+04 Coefficients=  2.2245814352D-04
     Exponent=  2.0352333680D+03 Coefficients=  1.7232738252D-03
     Exponent=  4.6322562359D+02 Coefficients=  8.9255715314D-03
     Exponent=  1.3120019598D+02 Coefficients=  3.5727984502D-02
     Exponent=  4.2853015891D+01 Coefficients=  1.1076259931D-01
     Exponent=  1.5584185766D+01 Coefficients=  2.4295627626D-01
 S 2 1.00
     Exponent=  6.2067138508D+00 Coefficients=  4.1440263448D-01
     Exponent=  2.5764896527D+00 Coefficients=  2.3744968655D-01
 S 1 1.00
     Exponent=  5.7696339419D-01 Coefficients=  1.0000000000D+00
 S 1 1.00
     Exponent=  2.2972831358D-01 Coefficients=  1.0000000000D+00
 S 1 1.00
     Exponent=  9.5164440028D-02 Coefficients=  1.0000000000D+00
 P 4 1.00
     Exponent=  3.4697232244D+01 Coefficients=  5.3333657805D-03
     Exponent=  7.9582622826D+00 Coefficients=  3.5864109092D-02
     Exponent=  2.3780826883D+00 Coefficients=  1.4215873329D-01
     Exponent=  8.1433208183D-01 Coefficients=  3.4270471845D-01
 P 1 1.00
     Exponent=  2.8887547253D-01 Coefficients=  4.6445822433D-01
 P 1 1.00
     Exponent=  1.0056823671D-01 Coefficients=  2.4955789874D-01
 D 1 1.00
     Exponent=  1.0970000000D+00 Coefficients=  1.0000000000D+00
 D 1 1.00
     Exponent=  3.1800000000D-01 Coefficients=  1.0000000000D+00
 F 1 1.00
     Exponent=  7.6100000000D-01 Coefficients=  1.0000000000D+00
 ****
 Centers:      18     20     23
 S 8 1.00
     Exponent=  3.0078484637D+05 Coefficients=  2.2806273096D-04
     Exponent=  4.5088970557D+04 Coefficients=  1.7681788761D-03
     Exponent=  1.0262516317D+04 Coefficients=  9.1927083490D-03
     Exponent=  2.9052897293D+03 Coefficients=  3.7355495807D-02
     Exponent=  9.4611487137D+02 Coefficients=  1.2151108426D-01
     Exponent=  3.3987832894D+02 Coefficients=  2.8818881468D-01
     Exponent=  1.3194425588D+02 Coefficients=  4.1126612677D-01
     Exponent=  5.2111494077D+01 Coefficients=  2.1518583573D-01
 S 4 1.00
     Exponent=  3.2948839267D+02 Coefficients= -2.4745216477D-02
     Exponent=  1.0192332739D+02 Coefficients= -1.1683089050D-01
     Exponent=  1.6240462745D+01 Coefficients=  5.5293621136D-01
     Exponent=  6.8840675801D+00 Coefficients=  5.3601640182D-01
 S 2 1.00
     Exponent=  1.0470693782D+01 Coefficients= -2.2912708577D-01
     Exponent=  1.7360039648D+00 Coefficients=  7.1159319984D-01
 S 1 1.00
     Exponent=  7.2577288979D-01 Coefficients=  1.0000000000D+00
 S 1 1.00
     Exponent=  1.1595528203D-01 Coefficients=  1.0000000000D+00
 S 1 1.00
     Exponent=  4.1968227746D-02 Coefficients=  1.0000000000D+00
 P 6 1.00
     Exponent=  1.5853959970D+03 Coefficients=  2.3793960179D-03
     Exponent=  3.7538006499D+02 Coefficients=  1.9253154755D-02
     Exponent=  1.2031816501D+02 Coefficients=  9.0021836536D-02
     Exponent=  4.4788749031D+01 Coefficients=  2.5798172356D-01
     Exponent=  1.7829278584D+01 Coefficients=  4.1492649744D-01
     Exponent=  7.2247153786D+00 Coefficients=  2.4207474784D-01
 P 3 1.00
     Exponent=  2.8143219756D+01 Coefficients= -2.9041755152D-02
     Exponent=  3.8743241412D+00 Coefficients=  5.5312260343D-01
     Exponent=  1.5410752281D+00 Coefficients=  9.6771136842D-01
 P 1 1.00
     Exponent=  5.8285615250D-01 Coefficients=  1.0000000000D+00
 P 1 1.00
     Exponent=  1.3491500000D-01 Coefficients=  1.0000000000D+00
 D 4 1.00
     Exponent=  6.1996675034D+01 Coefficients=  1.1971972255D-02
     Exponent=  1.7873732552D+01 Coefficients=  7.3210135410D-02
     Exponent=  6.2744782934D+00 Coefficients=  2.3103094314D-01
     Exponent=  2.3552337175D+00 Coefficients=  3.9910706494D-01
 D 1 1.00
     Exponent=  8.5432239901D-01 Coefficients=  4.1391589765D-01
 D 1 1.00
     Exponent=  2.7869254413D-01 Coefficients=  2.1909269782D-01
 D 1 1.00
     Exponent=  9.1000000000D-02 Coefficients=  1.0000000000D+00
 F 1 1.00
     Exponent=  1.5980000000D+00 Coefficients=  1.0000000000D+00
 ****
 Ernie: Thresh=  0.10000D-02 Tol=  0.10000D-05 Strict=F.
   760 basis functions,  1323 primitive gaussians,   876 cartesian basis functions
   119 alpha electrons      105 beta electrons
       nuclear repulsion energy      3848.3709750985 Hartrees.
 IExCor= 4134 DFT=T Ex+Corr=M06L ExCW=0 ScaHFX=  0.000000
 ScaDFX=  1.000000  1.000000  1.000000  1.000000 ScalE2=  1.000000  1.000000
 IRadAn=      5 IRanWt=     -1 IRanGd=            0 ICorTp=0 IEmpDi=  4
 NAtoms=   28 NActive=   28 NUniq=   28 SFac= 1.00D+00 NAtFMM=   60 NAOKFM=F Big=F
 Integral buffers will be    131072 words long.
 Raffenetti 2 integral format.
 Two-electron integral symmetry is turned off.
 Leave Link  301 at Sat Jan 21 16:51:10 2023, MaxMem= 14763950080 cpu:               0.1 elap:               0.1
 (Enter /software/commercial/gaussian/g16/AVX2/g16/l302.exe)
 NPDir=0 NMtPBC=     1 NCelOv=     1 NCel=       1 NClECP=     1 NCelD=      1
         NCelK=      1 NCelE2=     1 NClLst=     1 CellRange=     0.0.
 One-electron integrals computed using PRISM.
 NBasis=   760 RedAO= T EigKep=  5.38D-04  NBF=   760
 NBsUse=   760 1.00D-06 EigRej= -1.00D+00 NBFU=   760
 Precomputing XC quadrature grid using
 IXCGrd= 4 IRadAn=           5 IRanWt=          -1 IRanGd=           0 AccXCQ= 0.00D+00.
 Generated NRdTot=       0 NPtTot=           0 NUsed=           0 NTot=          32
 NSgBfM=   868   868   868   868   868 MxSgAt=    28 MxSgA2=    28.
 Leave Link  302 at Sat Jan 21 16:51:11 2023, MaxMem= 14763950080 cpu:               1.8 elap:               1.2
 (Enter /software/commercial/gaussian/g16/AVX2/g16/l303.exe)
 DipDrv:  MaxL=1.
 Leave Link  303 at Sat Jan 21 16:51:12 2023, MaxMem= 14763950080 cpu:               0.1 elap:               0.2
 (Enter /software/commercial/gaussian/g16/AVX2/g16/l401.exe)
 Initial guess from the checkpoint file:  "/scratch1/svicchi/G09-55811.pbs02/02-freq/FeFeFe-A-0xH2O-freq.chk"
 B after Tr=     0.000000    0.000000    0.000000
         Rot=    1.000000    0.000000    0.000000    0.000000 Ang=   0.00 deg.
 Guess basis will be translated and rotated to current coordinates.
 JPrj=2 DoOrth=T DoCkMO=T.
 Initial guess <Sx>= 0.0000 <Sy>= 0.0000 <Sz>= 7.0000 <S**2>=56.0456 S= 7.0030
 Leave Link  401 at Sat Jan 21 16:51:13 2023, MaxMem= 14763950080 cpu:               1.6 elap:               1.4
 (Enter /software/commercial/gaussian/g16/AVX2/g16/l502.exe)
 Two-electron integral symmetry not used.
 UHF open shell SCF:
 Using DIIS extrapolation, IDIIS=  1040.
 NGot= 14763950080 LenX= 14762403958 LenY= 14761635706
 Requested convergence on RMS density matrix=1.00D-08 within 150 cycles.
 Requested convergence on MAX density matrix=1.00D-06.
 Requested convergence on             energy=1.00D-06.
 No special actions if energy rises.
 Fock matrices will be formed incrementally for  20 cycles.

 Cycle   1  Pass 1  IDiag  1:
 FoFJK:  IHMeth= 1 ICntrl=     500 DoSepK=F KAlg= 0 I1Cent=           0 FoldK=F
 IRaf= 810000000 NMat=       1 IRICut=       1 DoRegI=T DoRafI=F ISym2E= 0 IDoP0=0 IntGTp=1.
 FoFCou: FMM=F IPFlag=           0 FMFlag=      100000 FMFlg1=           0
         NFxFlg=           0 DoJE=T BraDBF=F KetDBF=F FulRan=T
         wScrn=  0.000000 ICntrl=       500 IOpCl=  0 I1Cent=           0 NGrid=           0
         NMat0=    1 NMatS0=      1 NMatT0=    0 NMatD0=    1 NMtDS0=    0 NMtDT0=    0
 Symmetry not used in FoFCou.
 E= -5002.06657962636    
 DIIS: error= 3.08D-08 at cycle   1 NSaved=   1.
 NSaved= 1 IEnMin= 1 EnMin= -5002.06657962636     IErMin= 1 ErrMin= 3.08D-08
 ErrMax= 3.08D-08  0.00D+00 EMaxC= 1.00D-01 BMatC= 2.25D-12 BMatP= 2.25D-12
 IDIUse=1 WtCom= 1.00D+00 WtEn= 0.00D+00
 Coeff-Com:  0.100D+01
 Coeff:      0.100D+01
 Gap=     0.179 Goal=   None    Shift=    0.000
 Gap=     0.013 Goal=   None    Shift=    0.000
 RMSDP=1.26D-08 MaxDP=2.19D-06              OVMax= 1.55D-05

 Cycle   2  Pass 1  IDiag  1:
 RMSU=  1.26D-08    CP:  1.00D+00
 E= -5002.06657962636     Delta-E=       -0.000000000007 Rises=F Damp=F
 DIIS: error= 5.03D-07 at cycle   2 NSaved=   2.
 NSaved= 2 IEnMin= 2 EnMin= -5002.06657962636     IErMin= 1 ErrMin= 3.08D-08
 ErrMax= 5.03D-07  0.00D+00 EMaxC= 1.00D-01 BMatC= 5.15D-10 BMatP= 2.25D-12
 IDIUse=1 WtCom= 1.00D+00 WtEn= 0.00D+00
 Coeff-Com:  0.943D+00 0.572D-01
 Coeff:      0.943D+00 0.572D-01
 Gap=     0.179 Goal=   None    Shift=    0.000
 Gap=     0.013 Goal=   None    Shift=    0.000
 RMSDP=1.26D-08 MaxDP=2.26D-06 DE=-7.28D-12 OVMax= 1.56D-05

 Cycle   3  Pass 1  IDiag  1:
 RMSU=  1.37D-09    CP:  1.00D+00  4.79D-03
 E= -5002.06657962634     Delta-E=        0.000000000022 Rises=F Damp=F
 DIIS: error= 7.19D-08 at cycle   3 NSaved=   3.
 NSaved= 3 IEnMin= 2 EnMin= -5002.06657962636     IErMin= 1 ErrMin= 3.08D-08
 ErrMax= 7.19D-08  0.00D+00 EMaxC= 1.00D-01 BMatC= 9.33D-12 BMatP= 2.25D-12
 IDIUse=1 WtCom= 1.00D+00 WtEn= 0.00D+00
 Coeff-Com:  0.790D+00 0.565D-01 0.154D+00
 Coeff:      0.790D+00 0.565D-01 0.154D+00
 Gap=     0.179 Goal=   None    Shift=    0.000
 Gap=     0.013 Goal=   None    Shift=    0.000
 RMSDP=2.92D-09 MaxDP=6.12D-07 DE= 2.18D-11 OVMax= 3.60D-06

 SCF Done:  E(UM06L) =  -5002.06657963     A.U. after    3 cycles
            NFock=  3  Conv=0.29D-08     -V/T= 2.0016
 <Sx>= 0.0000 <Sy>= 0.0000 <Sz>= 7.0000 <S**2>=56.0456 S= 7.0030
 <L.S>=  0.00000000000    
 KE= 4.994108226908D+03 PE=-1.957278251155D+04 EE= 5.728236729921D+03
 Annihilation of the first spin contaminant:
 S**2 before annihilation    56.0456,   after    56.0002
 Leave Link  502 at Sat Jan 21 16:57:27 2023, MaxMem= 14763950080 cpu:             741.6 elap:             373.7
 (Enter /software/commercial/gaussian/g16/AVX2/g16/l508.exe)
 QCSCF skips out because SCF is already converged.
 Leave Link  508 at Sat Jan 21 16:57:28 2023, MaxMem= 14763950080 cpu:               0.0 elap:               0.0
 (Enter /software/commercial/gaussian/g16/AVX2/g16/l801.exe)
 DoSCS=F DFT=T ScalE2(SS,OS)=  1.000000  1.000000
 Range of M.O.s used for correlation:     1   760
 NBasis=   760 NAE=   119 NBE=   105 NFC=     0 NFV=     0
 NROrb=    760 NOA=   119 NOB=   105 NVA=   641 NVB=   655

 **** Warning!!: The smallest beta delta epsilon is  0.12539953D-01

 Leave Link  801 at Sat Jan 21 16:57:28 2023, MaxMem= 14763950080 cpu:               0.1 elap:               0.1
 (Enter /software/commercial/gaussian/g16/AVX2/g16/l1002.exe)
 Minotr:  UHF open shell wavefunction.
          Direct CPHF calculation.
          Differentiating once with respect to electric field.
                with respect to dipole field.
          Electric field/nuclear overlap derivatives assumed to be zero.
          Requested convergence is 1.0D-08 RMS, and 1.0D-07 maximum.
          Secondary convergence is 1.0D-12 RMS, and 1.0D-12 maximum.
          NewPWx=F KeepS1=T KeepF1=T KeepIn=T MapXYZ=F SortEE=F KeepMc=T.
         8583 words used for storage of precomputed grid.
 Two-electron integral symmetry not used.
          MDV=   14763950080 using IRadAn=       1.
          Solving linear equations simultaneously, MaxMat=     384.
          There are     3 degrees of freedom in the 1st order CPHF.  IDoFFX=0 NUNeed=     3.
      3 vectors produced by pass  0 Test12= 4.84D-12 3.33D-08 XBig12= 1.58D+04 9.90D+01.
 AX will form     3 AO Fock derivatives at one time.
 FoFJK:  IHMeth= 1 ICntrl=     500 DoSepK=F KAlg= 0 I1Cent=           0 FoldK=F
 IRaf= 810000000 NMat=       3 IRICut=       1 DoRegI=T DoRafI=F ISym2E= 0 IDoP0=0 IntGTp=1.
 FoFCou: FMM=F IPFlag=           0 FMFlag=      100000 FMFlg1=           0
         NFxFlg=           0 DoJE=T BraDBF=F KetDBF=F FulRan=T
         wScrn=  0.000000 ICntrl=       500 IOpCl=  0 I1Cent=           0 NGrid=           0
         NMat0=    3 NMatS0=      3 NMatT0=    0 NMatD0=    3 NMtDS0=    0 NMtDT0=    0
 Symmetry not used in FoFCou.
      3 vectors produced by pass  1 Test12= 4.84D-12 3.33D-08 XBig12= 1.42D+05 8.37D+01.
      3 vectors produced by pass  2 Test12= 4.84D-12 3.33D-08 XBig12= 1.05D+05 6.45D+01.
      3 vectors produced by pass  3 Test12= 4.84D-12 3.33D-08 XBig12= 8.88D+04 1.25D+02.
      3 vectors produced by pass  4 Test12= 4.84D-12 3.33D-08 XBig12= 6.82D+04 8.57D+01.
      3 vectors produced by pass  5 Test12= 4.84D-12 3.33D-08 XBig12= 1.06D+05 8.59D+01.
      3 vectors produced by pass  6 Test12= 4.84D-12 3.33D-08 XBig12= 1.52D+05 8.19D+01.
      3 vectors produced by pass  7 Test12= 4.84D-12 3.33D-08 XBig12= 5.51D+04 6.88D+01.
      3 vectors produced by pass  8 Test12= 4.84D-12 3.33D-08 XBig12= 4.18D+04 7.02D+01.
      3 vectors produced by pass  9 Test12= 4.84D-12 3.33D-08 XBig12= 1.44D+04 3.64D+01.
      3 vectors produced by pass 10 Test12= 4.84D-12 3.33D-08 XBig12= 6.89D+03 2.16D+01.
      3 vectors produced by pass 11 Test12= 4.84D-12 3.33D-08 XBig12= 5.73D+03 1.68D+01.
      3 vectors produced by pass 12 Test12= 4.84D-12 3.33D-08 XBig12= 8.02D+02 7.11D+00.
      3 vectors produced by pass 13 Test12= 4.84D-12 3.33D-08 XBig12= 1.38D+02 2.52D+00.
      3 vectors produced by pass 14 Test12= 4.84D-12 3.33D-08 XBig12= 1.16D+01 5.12D-01.
      3 vectors produced by pass 15 Test12= 4.84D-12 3.33D-08 XBig12= 1.71D+00 1.25D-01.
      3 vectors produced by pass 16 Test12= 4.84D-12 3.33D-08 XBig12= 2.92D-01 5.55D-02.
      3 vectors produced by pass 17 Test12= 4.84D-12 3.33D-08 XBig12= 4.62D-02 3.24D-02.
      3 vectors produced by pass 18 Test12= 4.84D-12 3.33D-08 XBig12= 3.47D-03 5.98D-03.
      3 vectors produced by pass 19 Test12= 4.84D-12 3.33D-08 XBig12= 5.89D-04 2.95D-03.
      3 vectors produced by pass 20 Test12= 4.84D-12 3.33D-08 XBig12= 7.41D-05 8.44D-04.
      3 vectors produced by pass 21 Test12= 4.84D-12 3.33D-08 XBig12= 4.43D-06 3.18D-04.
      3 vectors produced by pass 22 Test12= 4.84D-12 3.33D-08 XBig12= 3.94D-07 5.15D-05.
      3 vectors produced by pass 23 Test12= 4.84D-12 3.33D-08 XBig12= 2.92D-08 1.72D-05.
      3 vectors produced by pass 24 Test12= 4.84D-12 3.33D-08 XBig12= 2.01D-09 4.77D-06.
      3 vectors produced by pass 25 Test12= 4.84D-12 3.33D-08 XBig12= 1.70D-10 1.32D-06.
      3 vectors produced by pass 26 Test12= 4.84D-12 3.33D-08 XBig12= 1.72D-11 4.55D-07.
      3 vectors produced by pass 27 Test12= 4.84D-12 3.33D-08 XBig12= 1.82D-12 2.78D-07.
      1 vectors produced by pass 28 Test12= 4.84D-12 3.33D-08 XBig12= 1.39D-13 3.34D-08.
 InvSVY:  IOpt=1 It=  1 EMax= 9.95D-14
 Solved reduced A of dimension    85 with     3 vectors.
 End of Minotr F.D. properties file   721 does not exist.
 End of Minotr F.D. properties file   722 does not exist.
 End of Minotr F.D. properties file   788 does not exist.
 Leave Link 1002 at Sat Jan 21 18:29:07 2023, MaxMem= 14763950080 cpu:           10949.6 elap:            5498.7
 (Enter /software/commercial/gaussian/g16/AVX2/g16/l1101.exe)
 Using compressed storage, NAtomX=    28.
 Will process     29 centers per pass.
 Leave Link 1101 at Sat Jan 21 18:29:09 2023, MaxMem= 14763950080 cpu:               2.3 elap:               1.9
 (Enter /software/commercial/gaussian/g16/AVX2/g16/l1102.exe)
 Symmetrizing basis deriv contribution to polar:
 IMax=3 JMax=2 DiffMx= 0.00D+00
 Leave Link 1102 at Sat Jan 21 18:29:10 2023, MaxMem= 14763950080 cpu:               0.2 elap:               0.3
 (Enter /software/commercial/gaussian/g16/AVX2/g16/l1110.exe)
 Forming Gx(P) for the SCF density, NAtomX=    28.
 Integral derivatives from FoFJK, PRISM(SPDF).
 Do as many integral derivatives as possible in FoFJK.
 G2DrvN: MDV=   14763947004.
 G2DrvN: will do    29 centers at a time, making    1 passes.
 PxScal for G2LodP:  IOpCl= 1 ISclPx=1 IMOff=     1 NMtTot=     4 NTT=  289180 ScalPx= 2.50D+00
 Calling FoFCou, ICntrl=  3507 FMM=F I1Cent=   0 AccDes= 0.00D+00.
 FoFJK:  IHMeth= 1 ICntrl=    3507 DoSepK=F KAlg= 0 I1Cent=           0 FoldK=F
 IRaf=         0 NMat=       1 IRICut=       1 DoRegI=T DoRafI=F ISym2E= 0 IDoP0=0 IntGTp=1.
 FoFCou: FMM=F IPFlag=           0 FMFlag=      100000 FMFlg1=           0
         NFxFlg=           0 DoJE=F BraDBF=F KetDBF=F FulRan=T
         wScrn=  0.000000 ICntrl=      3507 IOpCl=  0 I1Cent=           0 NGrid=           0
         NMat0=    1 NMatS0=      1 NMatT0=    0 NMatD0=    4 NMtDS0=    3 NMtDT0=    0
 Symmetry not used in FoFCou.
 End of G2Drv F.D. properties file   721 does not exist.
 End of G2Drv F.D. properties file   722 does not exist.
 End of G2Drv F.D. properties file   788 does not exist.
 Leave Link 1110 at Sat Jan 21 19:58:47 2023, MaxMem= 14763950080 cpu:           10720.9 elap:            5376.7
 (Enter /software/commercial/gaussian/g16/AVX2/g16/l1002.exe)
 Minotr:  UHF open shell wavefunction.
          IDoAtm=1111111111111111111111111111
          Direct CPHF calculation.
          Differentiating once with respect to electric field.
                with respect to dipole field.
          Differentiating once with respect to nuclear coordinates.
          Requested convergence is 1.0D-08 RMS, and 1.0D-07 maximum.
          Secondary convergence is 1.0D-12 RMS, and 1.0D-12 maximum.
          NewPWx=T KeepS1=F KeepF1=F KeepIn=T MapXYZ=F SortEE=F KeepMc=T.
         8583 words used for storage of precomputed grid.
 Two-electron integral symmetry not used.
          MDV=   14763950080 using IRadAn=       1.
          Solving linear equations simultaneously, MaxMat=     384.
 FoF2E skips out because all densities are zero.
 CalDSu exits because no D1Ps are significant.
 FoFJK:  IHMeth= 1 ICntrl=     500 DoSepK=F KAlg= 0 I1Cent=           0 FoldK=F
 IRaf= 810000000 NMat=      84 IRICut=       1 DoRegI=T DoRafI=F ISym2E= 0 IDoP0=3 IntGTp=3.
 FoFCou: FMM=F IPFlag=           0 FMFlag=      100000 FMFlg1=           0
         NFxFlg=           0 DoJE=F BraDBF=F KetDBF=F FulRan=T
         wScrn=  0.000000 ICntrl=       500 IOpCl=  0 I1Cent=           0 NGrid=           0
         NMat0=   84 NMatS0=     84 NMatT0=    0 NMatD0=   84 NMtDS0=    0 NMtDT0=    0
 Symmetry not used in FoFCou.
          There are    87 degrees of freedom in the 1st order CPHF.  IDoFFX=5 NUNeed=    87.
 Will reuse    3 saved solutions.
     81 vectors produced by pass  0 Test12= 1.67D-13 1.15D-09 XBig12= 4.77D-01 3.27D-01.
 AX will form    81 AO Fock derivatives at one time.
     81 vectors produced by pass  1 Test12= 1.67D-13 1.15D-09 XBig12= 8.02D-01 2.20D-01.
     81 vectors produced by pass  2 Test12= 1.67D-13 1.15D-09 XBig12= 2.11D-02 3.53D-02.
     81 vectors produced by pass  3 Test12= 1.67D-13 1.15D-09 XBig12= 8.41D-04 3.45D-03.
     81 vectors produced by pass  4 Test12= 1.67D-13 1.15D-09 XBig12= 1.42D-05 3.46D-04.
     81 vectors produced by pass  5 Test12= 1.67D-13 1.15D-09 XBig12= 3.31D-07 7.13D-05.
     81 vectors produced by pass  6 Test12= 1.67D-13 1.15D-09 XBig12= 3.21D-09 4.66D-06.
     77 vectors produced by pass  7 Test12= 1.67D-13 1.15D-09 XBig12= 3.14D-11 4.83D-07.
     29 vectors produced by pass  8 Test12= 1.67D-13 1.15D-09 XBig12= 2.88D-13 3.77D-08.
      1 vectors produced by pass  9 Test12= 1.67D-13 1.15D-09 XBig12= 2.34D-15 2.69D-09.
 InvSVY:  IOpt=1 It=  1 EMax= 2.66D-15
 Solved reduced A of dimension   674 with    87 vectors.
 FullF1:  Do perturbations      1 to       3.
 Isotropic polarizability for W=    0.000000      206.18 Bohr**3.
 FullF1:  Do perturbations      1 to       6.
 End of Minotr F.D. properties file   721 does not exist.
 End of Minotr F.D. properties file   722 does not exist.
 End of Minotr F.D. properties file   788 does not exist.
 Leave Link 1002 at Sat Jan 21 23:17:01 2023, MaxMem= 14763950080 cpu:           23658.2 elap:           11893.8
 (Enter /software/commercial/gaussian/g16/AVX2/g16/l601.exe)
 Copying SCF densities to generalized density rwf, IOpCl= 1 IROHF=0.

 **********************************************************************

            Population analysis using the SCF Density.

 **********************************************************************

 Alpha  occ. eigenvalues -- -255.63305-255.62419-255.62001 -30.07907 -30.06852
 Alpha  occ. eigenvalues --  -30.06330 -25.85509 -25.84760 -25.84725 -25.84447
 Alpha  occ. eigenvalues --  -25.84025 -25.83950 -25.83634 -25.83429 -25.82793
 Alpha  occ. eigenvalues --  -18.98729 -18.98729 -18.98708 -18.98707 -18.98674
 Alpha  occ. eigenvalues --  -18.98673 -18.98623 -18.98623 -18.98533 -18.98533
 Alpha  occ. eigenvalues --  -18.98492 -18.98492 -18.97059 -10.18595 -10.18594
 Alpha  occ. eigenvalues --  -10.18431 -10.18430 -10.18414 -10.18414  -3.64801
 Alpha  occ. eigenvalues --   -3.63768  -3.63262  -2.39868  -2.38764  -2.38334
 Alpha  occ. eigenvalues --   -2.38300  -2.38277  -2.37947  -2.37688  -2.36739
 Alpha  occ. eigenvalues --   -2.35973  -1.07409  -1.07159  -1.07043  -1.06906
 Alpha  occ. eigenvalues --   -1.06755  -1.06657  -0.99634  -0.99583  -0.99245
 Alpha  occ. eigenvalues --   -0.99198  -0.99114  -0.99038  -0.94785  -0.60248
 Alpha  occ. eigenvalues --   -0.58999  -0.58919  -0.58744  -0.58709  -0.58492
 Alpha  occ. eigenvalues --   -0.50111  -0.50085  -0.49460  -0.48604  -0.48413
 Alpha  occ. eigenvalues --   -0.48220  -0.48042  -0.48033  -0.47918  -0.47453
 Alpha  occ. eigenvalues --   -0.47077  -0.47034  -0.44949  -0.44548  -0.43876
 Alpha  occ. eigenvalues --   -0.43314  -0.43054  -0.42602  -0.41174  -0.41058
 Alpha  occ. eigenvalues --   -0.39571  -0.38814  -0.38307  -0.38037  -0.37807
 Alpha  occ. eigenvalues --   -0.37616  -0.37222  -0.36749  -0.36599  -0.36356
 Alpha  occ. eigenvalues --   -0.35727  -0.35213  -0.33560  -0.33350  -0.33015
 Alpha  occ. eigenvalues --   -0.30220  -0.30204  -0.29626  -0.29608  -0.29602
 Alpha  occ. eigenvalues --   -0.29551  -0.29272  -0.29231  -0.29110  -0.28455
 Alpha  occ. eigenvalues --   -0.28368  -0.28115  -0.28055  -0.26085  -0.24759
 Alpha  occ. eigenvalues --   -0.23334  -0.23259  -0.22574  -0.22525
 Alpha virt. eigenvalues --   -0.04596  -0.03881  -0.03819  -0.03587  -0.02559
 Alpha virt. eigenvalues --   -0.02442   0.00922   0.01572   0.01890   0.06424
 Alpha virt. eigenvalues --    0.08069   0.08124   0.08485   0.08751   0.08788
 Alpha virt. eigenvalues --    0.08850   0.10637   0.11837   0.12119   0.13925
 Alpha virt. eigenvalues --    0.14896   0.15122   0.16079   0.16498   0.17764
 Alpha virt. eigenvalues --    0.17980   0.18456   0.18672   0.20257   0.21303
 Alpha virt. eigenvalues --    0.21747   0.22314   0.22505   0.23108   0.24445
 Alpha virt. eigenvalues --    0.25385   0.25822   0.26615   0.26772   0.27129
 Alpha virt. eigenvalues --    0.27814   0.28152   0.28338   0.28953   0.29639
 Alpha virt. eigenvalues --    0.29784   0.30375   0.30767   0.31164   0.31341
 Alpha virt. eigenvalues --    0.31709   0.34652   0.34731   0.34829   0.36619
 Alpha virt. eigenvalues --    0.36665   0.36878   0.38000   0.38156   0.38165
 Alpha virt. eigenvalues --    0.38698   0.39130   0.39165   0.39415   0.39825
 Alpha virt. eigenvalues --    0.40449   0.41023   0.41324   0.41409   0.41653
 Alpha virt. eigenvalues --    0.41935   0.42808   0.44091   0.44308   0.44699
 Alpha virt. eigenvalues --    0.45251   0.45394   0.45534   0.47930   0.47998
 Alpha virt. eigenvalues --    0.48122   0.50250   0.50925   0.51431   0.53140
 Alpha virt. eigenvalues --    0.53385   0.54047   0.54697   0.54707   0.55594
 Alpha virt. eigenvalues --    0.55934   0.57138   0.57195   0.57378   0.58134
 Alpha virt. eigenvalues --    0.59763   0.60217   0.62998   0.64775   0.64780
 Alpha virt. eigenvalues --    0.65271   0.65595   0.67357   0.67985   0.68075
 Alpha virt. eigenvalues --    0.68195   0.69169   0.69236   0.69539   0.69863
 Alpha virt. eigenvalues --    0.70439   0.70512   0.70531   0.70703   0.71476
 Alpha virt. eigenvalues --    0.73880   0.74191   0.74458   0.74884   0.75618
 Alpha virt. eigenvalues --    0.75659   0.75786   0.75829   0.78469   0.79453
 Alpha virt. eigenvalues --    0.79510   0.79720   0.80845   0.81579   0.82419
 Alpha virt. eigenvalues --    0.82915   0.85982   0.86927   0.87675   0.88910
 Alpha virt. eigenvalues --    0.88928   0.89620   0.90259   0.90369   0.90436
 Alpha virt. eigenvalues --    0.91395   0.91481   0.93129   0.93689   0.94022
 Alpha virt. eigenvalues --    0.96264   0.97109   0.97258   0.99098   0.99379
 Alpha virt. eigenvalues --    1.01038   1.01044   1.02216   1.02646   1.02858
 Alpha virt. eigenvalues --    1.04066   1.04551   1.05180   1.05784   1.07919
 Alpha virt. eigenvalues --    1.08127   1.08660   1.08741   1.09190   1.10125
 Alpha virt. eigenvalues --    1.10809   1.13955   1.18809   1.20800   1.21892
 Alpha virt. eigenvalues --    1.22748   1.23641   1.24536   1.24820   1.25061
 Alpha virt. eigenvalues --    1.25409   1.25436   1.27347   1.28477   1.32924
 Alpha virt. eigenvalues --    1.33575   1.36985   1.37959   1.39735   1.40227
 Alpha virt. eigenvalues --    1.40282   1.41125   1.43567   1.44487   1.44755
 Alpha virt. eigenvalues --    1.45343   1.45518   1.45803   1.48772   1.48958
 Alpha virt. eigenvalues --    1.49759   1.51027   1.51558   1.53331   1.53345
 Alpha virt. eigenvalues --    1.53510   1.54324   1.55671   1.56210   1.57516
 Alpha virt. eigenvalues --    1.57817   1.57921   1.60413   1.60641   1.61657
 Alpha virt. eigenvalues --    1.64453   1.66376   1.66826   1.67387   1.68485
 Alpha virt. eigenvalues --    1.69491   1.70242   1.70360   1.70595   1.74991
 Alpha virt. eigenvalues --    1.75858   1.76171   1.78522   1.79189   1.80375
 Alpha virt. eigenvalues --    1.83559   1.86351   1.87060   1.88117   1.89356
 Alpha virt. eigenvalues --    1.89615   1.89849   1.90274   1.91935   1.92373
 Alpha virt. eigenvalues --    1.93201   1.93234   1.93492   1.95235   1.95562
 Alpha virt. eigenvalues --    1.97489   1.98794   2.01168   2.02000   2.02836
 Alpha virt. eigenvalues --    2.03336   2.03887   2.04687   2.04816   2.05702
 Alpha virt. eigenvalues --    2.05827   2.06000   2.06247   2.06664   2.08826
 Alpha virt. eigenvalues --    2.09288   2.09357   2.09760   2.11031   2.12041
 Alpha virt. eigenvalues --    2.13407   2.13942   2.14881   2.15449   2.15634
 Alpha virt. eigenvalues --    2.17178   2.18137   2.18376   2.18763   2.19659
 Alpha virt. eigenvalues --    2.21095   2.21281   2.21737   2.23314   2.24240
 Alpha virt. eigenvalues --    2.25271   2.25346   2.25395   2.26653   2.26883
 Alpha virt. eigenvalues --    2.28593   2.28798   2.28926   2.31065   2.31695
 Alpha virt. eigenvalues --    2.36017   2.39489   2.41382   2.41386   2.45890
 Alpha virt. eigenvalues --    2.48211   2.53496   2.55133   2.55732   2.56692
 Alpha virt. eigenvalues --    2.57800   2.64199   2.64983   2.65633   2.66124
 Alpha virt. eigenvalues --    2.66199   2.66564   2.68304   2.68804   2.70344
 Alpha virt. eigenvalues --    2.70847   2.71887   2.72225   2.72870   2.80286
 Alpha virt. eigenvalues --    2.80352   2.80404   2.80836   2.81383   2.85563
 Alpha virt. eigenvalues --    2.86555   2.87444   2.88369   2.90046   2.90603
 Alpha virt. eigenvalues --    2.92056   2.94913   2.96003   2.97318   2.97457
 Alpha virt. eigenvalues --    2.98620   2.98765   2.98957   2.99800   3.00247
 Alpha virt. eigenvalues --    3.02963   3.03143   3.04674   3.05077   3.05294
 Alpha virt. eigenvalues --    3.06080   3.06194   3.07522   3.07771   3.09574
 Alpha virt. eigenvalues --    3.09767   3.10160   3.12490   3.12493   3.12886
 Alpha virt. eigenvalues --    3.13041   3.14337   3.14795   3.15032   3.15062
 Alpha virt. eigenvalues --    3.15186   3.15663   3.16050   3.16187   3.17045
 Alpha virt. eigenvalues --    3.17106   3.18769   3.22410   3.22511   3.23532
 Alpha virt. eigenvalues --    3.23975   3.24013   3.25908   3.26055   3.26485
 Alpha virt. eigenvalues --    3.27088   3.27981   3.28718   3.30487   3.31679
 Alpha virt. eigenvalues --    3.33918   3.36977   3.37106   3.39689   3.40590
 Alpha virt. eigenvalues --    3.41406   3.41957   3.42775   3.43206   3.43915
 Alpha virt. eigenvalues --    3.44367   3.44864   3.45702   3.46891   3.47649
 Alpha virt. eigenvalues --    3.48658   3.49074   3.49984   3.51493   3.51593
 Alpha virt. eigenvalues --    3.53102   3.53399   3.55129   3.56450   3.57694
 Alpha virt. eigenvalues --    3.58444   3.58949   3.61332   3.61555   3.62227
 Alpha virt. eigenvalues --    3.63329   3.63908   3.65071   3.65590   3.65904
 Alpha virt. eigenvalues --    3.67429   3.70234   3.72604   3.73019   3.75263
 Alpha virt. eigenvalues --    3.79250   3.79751   3.80139   3.80274   3.80798
 Alpha virt. eigenvalues --    3.81745   3.84428   3.84926   3.90872   3.91208
 Alpha virt. eigenvalues --    3.91745   3.92689   3.92937   3.93050   3.93329
 Alpha virt. eigenvalues --    3.93644   3.94342   3.95382   3.96428   3.97041
 Alpha virt. eigenvalues --    3.97214   3.97361   3.98007   4.03817   4.04317
 Alpha virt. eigenvalues --    4.05144   4.05929   4.10688   4.11954   4.12178
 Alpha virt. eigenvalues --    4.12455   4.14697   4.15067   4.16579   4.17056
 Alpha virt. eigenvalues --    4.18083   4.19448   4.20135   4.20384   4.20989
 Alpha virt. eigenvalues --    4.21785   4.22308   4.24666   4.27356   4.42775
 Alpha virt. eigenvalues --    4.43196   4.44288   4.47239   4.48134   4.48229
 Alpha virt. eigenvalues --    4.50856   4.51086   4.53356   4.55431   4.56263
 Alpha virt. eigenvalues --    4.65599   5.22957   5.23085   5.23236   5.23300
 Alpha virt. eigenvalues --    5.23902   5.24527   5.24619   5.25011   5.25035
 Alpha virt. eigenvalues --    5.25071   5.25075   5.25505   5.25799   5.26175
 Alpha virt. eigenvalues --    5.26553   5.27222   5.27755   5.28495   5.29117
 Alpha virt. eigenvalues --    5.29542   5.30519   5.31466   5.31752   5.31812
 Alpha virt. eigenvalues --    5.32155   5.32258   5.34456   5.35880   5.36468
 Alpha virt. eigenvalues --    5.37502   5.39329   5.41211   5.41445   5.43274
 Alpha virt. eigenvalues --    5.44121   5.48863   5.49201   5.57087   5.57365
 Alpha virt. eigenvalues --    5.57604   5.57757   5.57980   5.58589   5.61161
 Alpha virt. eigenvalues --    5.62586   5.62736   5.63388   5.63643   5.67204
 Alpha virt. eigenvalues --    5.67839   5.68112   5.68375   5.68428   5.68690
 Alpha virt. eigenvalues --    5.68729   5.87011   5.88493   5.88765   5.91532
 Alpha virt. eigenvalues --    5.94263   5.95257   6.04254   6.04279   6.04336
 Alpha virt. eigenvalues --    6.04555   6.08388   6.08629   6.15486   6.15540
 Alpha virt. eigenvalues --    6.15830   6.15962   6.16122   6.16169   6.16203
 Alpha virt. eigenvalues --    6.16822   6.18719   6.18769   6.19130   6.22789
 Alpha virt. eigenvalues --    6.41178   6.43302   6.43760   6.44166   6.45200
 Alpha virt. eigenvalues --    6.47043   6.47719   6.47926   6.48217   6.49099
 Alpha virt. eigenvalues --    6.49433   6.51758   6.52893   6.54090   6.56063
 Alpha virt. eigenvalues --    6.56741   6.57750   6.58653   6.59422   6.59594
 Alpha virt. eigenvalues --    6.61668   6.61944   6.64702   6.65936   6.66145
 Alpha virt. eigenvalues --    6.67447   6.67534   6.69385   6.70122   6.71510
 Alpha virt. eigenvalues --    6.74328   6.75702   6.78998   6.83571   6.83895
 Alpha virt. eigenvalues --    6.85472   6.85606   6.86909   6.88943   6.89172
 Alpha virt. eigenvalues --    6.89533   6.89892   6.89970   6.90422   6.91433
 Alpha virt. eigenvalues --    6.93513   6.95636   6.96073   6.96355   6.96585
 Alpha virt. eigenvalues --    6.96931   7.03091   7.03702   7.04068   7.06073
 Alpha virt. eigenvalues --    7.06277   7.08255   7.09058   7.14220   7.21771
 Alpha virt. eigenvalues --    7.22685   7.23539   7.24072   7.24138   7.24148
 Alpha virt. eigenvalues --    7.24918   7.25199   7.25418   7.26941   7.26961
 Alpha virt. eigenvalues --    7.27079   7.29651   7.31204   7.31517   7.35116
 Alpha virt. eigenvalues --    7.37886   7.39473  23.20450  23.20691  23.20804
 Alpha virt. eigenvalues --   23.21339  23.21734  23.22358  43.73602  43.84515
 Alpha virt. eigenvalues --   43.84958  43.87291  43.95583  43.95806  43.96400
 Alpha virt. eigenvalues --   44.08831  44.14595  44.15275  44.24512  44.27666
 Alpha virt. eigenvalues --   44.28046
  Beta  occ. eigenvalues -- -255.63129-255.62245-255.61830 -29.96704 -29.95781
  Beta  occ. eigenvalues --  -29.95341 -25.77032 -25.76723 -25.76632 -25.75981
  Beta  occ. eigenvalues --  -25.75966 -25.75638 -25.75544 -25.75539 -25.75161
  Beta  occ. eigenvalues --  -18.98431 -18.98430 -18.98409 -18.98408 -18.98402
  Beta  occ. eigenvalues --  -18.98402 -18.98314 -18.98313 -18.98240 -18.98240
  Beta  occ. eigenvalues --  -18.98199 -18.98199 -18.95246 -10.18594 -10.18594
  Beta  occ. eigenvalues --  -10.18441 -10.18441 -10.18430 -10.18430  -3.40627
  Beta  occ. eigenvalues --   -3.39827  -3.39430  -2.15523  -2.15013  -2.14818
  Beta  occ. eigenvalues --   -2.14677  -2.14508  -2.14333  -2.14112  -2.13851
  Beta  occ. eigenvalues --   -2.13459  -1.06816  -1.06558  -1.06431  -1.06327
  Beta  occ. eigenvalues --   -1.06134  -1.06037  -0.98933  -0.98836  -0.98520
  Beta  occ. eigenvalues --   -0.98509  -0.98365  -0.98290  -0.89951  -0.59530
  Beta  occ. eigenvalues --   -0.58467  -0.58391  -0.58080  -0.57860  -0.57800
  Beta  occ. eigenvalues --   -0.48945  -0.48903  -0.47485  -0.47179  -0.47117
  Beta  occ. eigenvalues --   -0.47024  -0.47015  -0.46975  -0.46641  -0.46481
  Beta  occ. eigenvalues --   -0.46289  -0.46232  -0.43359  -0.42516  -0.42358
  Beta  occ. eigenvalues --   -0.41597  -0.40680  -0.40565  -0.37263  -0.36387
  Beta  occ. eigenvalues --   -0.32053  -0.31966  -0.31940  -0.31389  -0.30186
  Beta  occ. eigenvalues --   -0.29957  -0.29894  -0.29861  -0.29763  -0.29322
  Beta  occ. eigenvalues --   -0.29273  -0.28685  -0.28484  -0.28389  -0.28107
  Beta  occ. eigenvalues --   -0.27636  -0.27489  -0.27392  -0.26127  -0.18448
  Beta virt. eigenvalues --   -0.17194  -0.16956  -0.16089  -0.16027  -0.15622
  Beta virt. eigenvalues --   -0.15439  -0.14306  -0.13545  -0.12207  -0.10169
  Beta virt. eigenvalues --   -0.09491  -0.09233  -0.09220  -0.08990  -0.03339
  Beta virt. eigenvalues --   -0.03299  -0.03256  -0.03235  -0.02283  -0.02176
  Beta virt. eigenvalues --    0.02138   0.02613   0.03019   0.06979   0.08186
  Beta virt. eigenvalues --    0.08265   0.08535   0.08856   0.08923   0.09065
  Beta virt. eigenvalues --    0.11225   0.12520   0.12791   0.15917   0.16216
  Beta virt. eigenvalues --    0.16561   0.16620   0.16695   0.17979   0.18469
  Beta virt. eigenvalues --    0.18572   0.18680   0.21360   0.21378   0.21870
  Beta virt. eigenvalues --    0.22400   0.22576   0.23968   0.24840   0.26117
  Beta virt. eigenvalues --    0.26163   0.26536   0.26715   0.27066   0.27691
  Beta virt. eigenvalues --    0.28249   0.28281   0.28680   0.29374   0.29967
  Beta virt. eigenvalues --    0.31073   0.32022   0.32388   0.32810   0.32984
  Beta virt. eigenvalues --    0.34835   0.34848   0.35740   0.36620   0.36805
  Beta virt. eigenvalues --    0.36981   0.37695   0.38308   0.38320   0.39160
  Beta virt. eigenvalues --    0.39204   0.39996   0.40468   0.40690   0.40775
  Beta virt. eigenvalues --    0.40951   0.41641   0.41812   0.42151   0.42221
  Beta virt. eigenvalues --    0.42784   0.44440   0.44516   0.44652   0.45567
  Beta virt. eigenvalues --    0.46016   0.47345   0.48250   0.48295   0.48313
  Beta virt. eigenvalues --    0.50570   0.51167   0.51303   0.54285   0.54659
  Beta virt. eigenvalues --    0.55086   0.55343   0.55850   0.55937   0.56496
  Beta virt. eigenvalues --    0.57130   0.57319   0.57441   0.58076   0.59759
  Beta virt. eigenvalues --    0.60245   0.63382   0.64458   0.64898   0.65265
  Beta virt. eigenvalues --    0.65809   0.67788   0.67997   0.68291   0.68430
  Beta virt. eigenvalues --    0.69027   0.69594   0.70163   0.70297   0.70881
  Beta virt. eigenvalues --    0.71010   0.71356   0.71550   0.71756   0.73786
  Beta virt. eigenvalues --    0.73985   0.75465   0.75532   0.75794   0.75851
  Beta virt. eigenvalues --    0.76226   0.76602   0.79209   0.80019   0.80554
  Beta virt. eigenvalues --    0.80981   0.81419   0.81806   0.82226   0.82725
  Beta virt. eigenvalues --    0.87277   0.88045   0.88877   0.90463   0.90599
  Beta virt. eigenvalues --    0.90750   0.90953   0.91658   0.91738   0.92232
  Beta virt. eigenvalues --    0.93398   0.94707   0.95176   0.95227   0.97320
  Beta virt. eigenvalues --    0.97586   0.97957   1.00684   1.00750   1.00864
  Beta virt. eigenvalues --    1.02650   1.02913   1.03151   1.04484   1.04488
  Beta virt. eigenvalues --    1.05228   1.05667   1.08500   1.09914   1.10094
  Beta virt. eigenvalues --    1.10405   1.10811   1.11340   1.12464   1.12717
  Beta virt. eigenvalues --    1.14855   1.19292   1.21425   1.23142   1.23450
  Beta virt. eigenvalues --    1.23998   1.25152   1.25308   1.25677   1.26417
  Beta virt. eigenvalues --    1.27071   1.27363   1.29980   1.33748   1.34415
  Beta virt. eigenvalues --    1.37262   1.38419   1.40264   1.40761   1.41380
  Beta virt. eigenvalues --    1.41956   1.44815   1.44849   1.44942   1.46250
  Beta virt. eigenvalues --    1.46438   1.47333   1.49495   1.49718   1.50528
  Beta virt. eigenvalues --    1.51938   1.52430   1.53923   1.54183   1.54422
  Beta virt. eigenvalues --    1.55311   1.56376   1.57189   1.58223   1.58459
  Beta virt. eigenvalues --    1.58729   1.60713   1.60904   1.62196   1.64816
  Beta virt. eigenvalues --    1.66812   1.67128   1.67854   1.69567   1.70369
  Beta virt. eigenvalues --    1.70751   1.70851   1.71373   1.75504   1.76402
  Beta virt. eigenvalues --    1.76681   1.79414   1.79944   1.81278   1.84123
  Beta virt. eigenvalues --    1.87017   1.87276   1.89061   1.90843   1.90863
  Beta virt. eigenvalues --    1.90934   1.91479   1.92523   1.92684   1.93826
  Beta virt. eigenvalues --    1.94175   1.94324   1.95907   1.96261   1.99326
  Beta virt. eigenvalues --    2.00541   2.02475   2.02517   2.04308   2.04456
  Beta virt. eigenvalues --    2.05232   2.05582   2.06224   2.07487   2.07541
  Beta virt. eigenvalues --    2.07834   2.08410   2.08692   2.09826   2.10389
  Beta virt. eigenvalues --    2.10418   2.11030   2.11890   2.13643   2.14872
  Beta virt. eigenvalues --    2.15139   2.16200   2.16495   2.16818   2.18397
  Beta virt. eigenvalues --    2.18661   2.19192   2.19480   2.20470   2.21550
  Beta virt. eigenvalues --    2.22228   2.22579   2.24019   2.25351   2.26124
  Beta virt. eigenvalues --    2.28553   2.29603   2.29814   2.30097   2.30849
  Beta virt. eigenvalues --    2.30889   2.31398   2.34605   2.35886   2.36292
  Beta virt. eigenvalues --    2.40119   2.41592   2.41755   2.46678   2.49158
  Beta virt. eigenvalues --    2.55814   2.56235   2.56725   2.58206   2.59405
  Beta virt. eigenvalues --    2.64730   2.66229   2.66631   2.67228   2.67899
  Beta virt. eigenvalues --    2.68163   2.69207   2.69813   2.71050   2.71533
  Beta virt. eigenvalues --    2.73823   2.73962   2.74442   2.80809   2.80870
  Beta virt. eigenvalues --    2.81440   2.81912   2.82225   2.88620   2.89529
  Beta virt. eigenvalues --    2.89546   2.90548   2.91760   2.92391   2.93892
  Beta virt. eigenvalues --    2.96892   2.97107   2.97861   2.98236   2.99119
  Beta virt. eigenvalues --    2.99469   2.99679   3.00401   3.00813   3.03236
  Beta virt. eigenvalues --    3.04739   3.05734   3.06127   3.06863   3.06971
  Beta virt. eigenvalues --    3.07669   3.09011   3.09350   3.10389   3.10560
  Beta virt. eigenvalues --    3.11254   3.12725   3.12831   3.13462   3.13680
  Beta virt. eigenvalues --    3.14876   3.15249   3.15379   3.15387   3.15634
  Beta virt. eigenvalues --    3.16066   3.16472   3.16756   3.18350   3.19140
  Beta virt. eigenvalues --    3.20999   3.23388   3.24013   3.24304   3.24897
  Beta virt. eigenvalues --    3.25967   3.27139   3.27244   3.27262   3.27641
  Beta virt. eigenvalues --    3.28971   3.29275   3.31427   3.32404   3.34277
  Beta virt. eigenvalues --    3.37675   3.37843   3.40051   3.43953   3.44861
  Beta virt. eigenvalues --    3.45919   3.46158   3.46268   3.46602   3.47025
  Beta virt. eigenvalues --    3.47234   3.48423   3.48647   3.49241   3.49824
  Beta virt. eigenvalues --    3.50190   3.50387   3.52944   3.53058   3.55043
  Beta virt. eigenvalues --    3.57336   3.58762   3.60089   3.63244   3.63290
  Beta virt. eigenvalues --    3.64121   3.64455   3.65369   3.66083   3.68254
  Beta virt. eigenvalues --    3.68607   3.71707   3.73043   3.74278   3.74624
  Beta virt. eigenvalues --    3.75405   3.77971   3.79926   3.80282   3.80985
  Beta virt. eigenvalues --    3.82383   3.82506   3.82805   3.82880   3.85438
  Beta virt. eigenvalues --    3.86212   3.86821   3.96066   3.98036   3.99000
  Beta virt. eigenvalues --    3.99317   4.06454   4.06798   4.09761   4.10440
  Beta virt. eigenvalues --    4.10656   4.10742   4.11147   4.11215   4.11218
  Beta virt. eigenvalues --    4.11295   4.12055   4.14942   4.15288   4.16780
  Beta virt. eigenvalues --    4.17124   4.18289   4.18714   4.18835   4.18915
  Beta virt. eigenvalues --    4.19771   4.27192   4.28272   4.28852   4.29156
  Beta virt. eigenvalues --    4.29772   4.30318   4.30737   4.31061   4.32023
  Beta virt. eigenvalues --    4.34287   4.34361   4.35575   4.43412   4.44026
  Beta virt. eigenvalues --    4.44870   4.47821   4.48660   4.48778   4.51437
  Beta virt. eigenvalues --    4.51785   4.53840   4.57059   4.58148   4.66694
  Beta virt. eigenvalues --    5.24197   5.24371   5.24446   5.24600   5.25285
  Beta virt. eigenvalues --    5.25659   5.25722   5.26067   5.26075   5.26177
  Beta virt. eigenvalues --    5.26217   5.26947   5.27149   5.27562   5.27747
  Beta virt. eigenvalues --    5.29209   5.29335   5.30708   5.30931   5.31572
  Beta virt. eigenvalues --    5.31785   5.32688   5.32958   5.33071   5.36843
  Beta virt. eigenvalues --    5.37380   5.37943   5.39192   5.40213   5.41871
  Beta virt. eigenvalues --    5.42731   5.42987   5.43122   5.44362   5.49969
  Beta virt. eigenvalues --    5.50313   5.51073   5.57823   5.58068   5.58331
  Beta virt. eigenvalues --    5.58491   5.58701   5.59308   5.62209   5.63623
  Beta virt. eigenvalues --    5.63804   5.64380   5.64642   5.67941   5.68641
  Beta virt. eigenvalues --    5.68983   5.69195   5.69275   5.69422   5.69485
  Beta virt. eigenvalues --    5.87721   5.89160   5.89468   5.92259   5.95010
  Beta virt. eigenvalues --    5.96045   6.04834   6.04845   6.04903   6.05183
  Beta virt. eigenvalues --    6.08994   6.09258   6.16001   6.16129   6.16437
  Beta virt. eigenvalues --    6.16465   6.16632   6.16708   6.16752   6.17484
  Beta virt. eigenvalues --    6.19394   6.19429   6.19804   6.23450   6.42582
  Beta virt. eigenvalues --    6.45381   6.46348   6.46399   6.46432   6.48407
  Beta virt. eigenvalues --    6.48941   6.48964   6.49731   6.51532   6.51614
  Beta virt. eigenvalues --    6.52881   6.54074   6.55172   6.57218   6.57880
  Beta virt. eigenvalues --    6.59732   6.59937   6.60640   6.61148   6.63006
  Beta virt. eigenvalues --    6.63296   6.65986   6.68277   6.68311   6.69190
  Beta virt. eigenvalues --    6.69320   6.70751   6.71541   6.74201   6.77075
  Beta virt. eigenvalues --    6.78781   6.80150   6.84618   6.84792   6.87215
  Beta virt. eigenvalues --    6.88420   6.89902   6.89996   6.90232   6.90867
  Beta virt. eigenvalues --    6.91194   6.91262   6.91408   6.92504   6.97049
  Beta virt. eigenvalues --    6.97288   6.97591   6.97964   6.99591   7.01280
  Beta virt. eigenvalues --    7.04328   7.04931   7.05337   7.07394   7.07663
  Beta virt. eigenvalues --    7.10249   7.11622   7.15615   7.23045   7.23447
  Beta virt. eigenvalues --    7.24413   7.24834   7.24970   7.25061   7.25757
  Beta virt. eigenvalues --    7.25974   7.26234   7.27891   7.28088   7.28094
  Beta virt. eigenvalues --    7.30768   7.32313   7.32319   7.36447   7.38817
  Beta virt. eigenvalues --    7.40478  23.20443  23.20682  23.20802  23.21332
  Beta virt. eigenvalues --   23.21731  23.22352  43.73692  43.84498  43.84940
  Beta virt. eigenvalues --   43.87276  43.95583  43.95795  43.96387  44.08812
  Beta virt. eigenvalues --   44.14579  44.15256  44.24483  44.27639  44.28016
          Condensed to atoms (all electrons):
               1          2          3          4          5          6
     1  O    8.303212  -0.092514   0.377703  -0.062559  -0.000003  -0.001665
     2  O   -0.092514   8.292902   0.385094  -0.061266  -0.000001  -0.000004
     3  C    0.377703   0.385094   4.159979   0.416249  -0.000035   0.000685
     4  H   -0.062559  -0.061266   0.416249   0.655186  -0.000000   0.000005
     5  O   -0.000003  -0.000001  -0.000035  -0.000000   8.290134  -0.092434
     6  O   -0.001665  -0.000004   0.000685   0.000005  -0.092434   8.295517
     7  C    0.000727  -0.000032  -0.000003   0.000001   0.383089   0.374101
     8  H    0.000005  -0.000000   0.000000   0.000000  -0.060623  -0.061943
     9  O   -0.000061  -0.030554  -0.000771  -0.000081  -0.000000  -0.000000
    10  O   -0.027203  -0.000052  -0.000645  -0.000096   0.000210  -0.038155
    11  O   -0.000048  -0.000020   0.000011   0.000001  -0.034654   0.000216
    12  C   -0.000837   0.000015   0.000815   0.000041   0.000634   0.000707
    13  H   -0.000097   0.000001   0.000044  -0.000000  -0.000188  -0.000211
    14  O    0.000311  -0.034347   0.000286  -0.000192  -0.000020  -0.000053
    15  O   -0.039422   0.000309   0.000310  -0.000227  -0.000048  -0.027224
    16  C    0.000312   0.000286  -0.000592   0.000349   0.000011  -0.000643
    17  H   -0.000227  -0.000192   0.000349  -0.000008   0.000001  -0.000096
    18  Fe  -0.006289   0.130077  -0.014607   0.002506  -0.000100  -0.000039
    19  O   -0.000002  -0.001339   0.000624   0.000004  -0.000043  -0.000005
    20  Fe  -0.000003  -0.000111   0.000296   0.000016   0.131704  -0.006633
    21  O   -0.000000   0.000000  -0.000030  -0.000000  -0.030041  -0.000060
    22  O   -0.000006  -0.000037  -0.000056  -0.000000  -0.001347  -0.000002
    23  Fe   0.134808  -0.006539  -0.013765   0.002626  -0.005987   0.136989
    24  O   -0.021918  -0.024363   0.000947  -0.000582  -0.023323  -0.022314
    25  C   -0.000027   0.000669   0.000032   0.000001  -0.000659  -0.000056
    26  H   -0.000000   0.000005   0.000000   0.000000  -0.000107  -0.000000
    27  C   -0.000044  -0.000688   0.000814   0.000032   0.000633  -0.000027
    28  H   -0.000000  -0.000110   0.000036  -0.000000   0.000005  -0.000000
               7          8          9         10         11         12
     1  O    0.000727   0.000005  -0.000061  -0.027203  -0.000048  -0.000837
     2  O   -0.000032  -0.000000  -0.030554  -0.000052  -0.000020   0.000015
     3  C   -0.000003   0.000000  -0.000771  -0.000645   0.000011   0.000815
     4  H    0.000001   0.000000  -0.000081  -0.000096   0.000001   0.000041
     5  O    0.383089  -0.060623  -0.000000   0.000210  -0.034654   0.000634
     6  O    0.374101  -0.061943  -0.000000  -0.038155   0.000216   0.000707
     7  C    4.169783   0.415286  -0.000028   0.000722   0.000620  -0.000590
     8  H    0.415286   0.654088  -0.000000  -0.000211  -0.000188   0.000377
     9  O   -0.000028  -0.000000   8.292341  -0.000005  -0.000043  -0.000071
    10  O    0.000722  -0.000211  -0.000005   8.295565  -0.092433   0.374131
    11  O    0.000620  -0.000188  -0.000043  -0.092433   8.290130   0.383062
    12  C   -0.000590   0.000377  -0.000071   0.374131   0.383062   4.169766
    13  H    0.000377  -0.000006  -0.000000  -0.061936  -0.060630   0.415283
    14  O    0.000015   0.000001  -0.001340  -0.000004  -0.000001  -0.000032
    15  O   -0.000834  -0.000097  -0.000002  -0.001664  -0.000003   0.000726
    16  C    0.000816   0.000044   0.000624   0.000685  -0.000035  -0.000003
    17  H    0.000041  -0.000000   0.000004   0.000005  -0.000000   0.000001
    18  Fe   0.000186   0.000018   0.134861  -0.000038  -0.000099   0.000186
    19  O   -0.000071  -0.000000  -0.033647  -0.000000  -0.000000  -0.000028
    20  Fe  -0.015666   0.002558  -0.007887  -0.006631   0.131700  -0.015652
    21  O   -0.000836  -0.000085   0.000452  -0.000002  -0.001348   0.000624
    22  O    0.000623   0.000004  -0.090911  -0.000060  -0.030042  -0.000835
    23  Fe  -0.015102   0.002840  -0.000159   0.136970  -0.005995  -0.015104
    24  O    0.000786  -0.000593  -0.015812  -0.022355  -0.023313   0.000784
    25  C    0.000744   0.000032  -0.000234  -0.000027   0.000633   0.000042
    26  H    0.000033  -0.000000  -0.000187  -0.000000   0.000005   0.000001
    27  C    0.000041   0.000001   0.375060  -0.000055  -0.000660   0.000745
    28  H    0.000001   0.000000  -0.061225  -0.000000  -0.000107   0.000033
              13         14         15         16         17         18
     1  O   -0.000097   0.000311  -0.039422   0.000312  -0.000227  -0.006289
     2  O    0.000001  -0.034347   0.000309   0.000286  -0.000192   0.130077
     3  C    0.000044   0.000286   0.000310  -0.000592   0.000349  -0.014607
     4  H   -0.000000  -0.000192  -0.000227   0.000349  -0.000008   0.002506
     5  O   -0.000188  -0.000020  -0.000048   0.000011   0.000001  -0.000100
     6  O   -0.000211  -0.000053  -0.027224  -0.000643  -0.000096  -0.000039
[...]
 5777,0.01524171,-0.12474904,0.00649333,0.00476315,-0.00237758,0.152359
 19,0.15375511,0.52862172,0.00140037,-0.00070807,-0.00178418,0.00074294
 ,-0.00230327,0.00030284,-0.00035886,0.00211456,0.00136669,0.00001987,0
 .00002479,-0.00027796,-0.00001409,0.00018169,0.00086708,-0.00044976,0.
 00011232,0.00070666,0.00003022,-0.00031977,-0.00001320,-0.00018518,0.0
 0016260,-0.00003227,0.04212236,-0.01735922,0.01647454,0.00117573,-0.00
 055522,0.00159184,0.00195145,0.00114742,0.00080573,-0.00033861,0.00161
 574,-0.00072114,0.00025550,0.00020554,0.00014408,-0.00032019,-0.000218
 31,0.00009972,-0.00031599,0.00017679,-0.00063558,0.00028957,0.00011513
 ,0.00052134,-0.00005749,-0.00001449,-0.00015241,-0.00996870,0.00714660
 ,-0.00266943,0.00353663,0.00133060,-0.00523434,-0.02657713,0.01853802,
 0.00294844,-0.01678355,-0.00208181,-0.00676443,0.14895520,-0.00117258,
 0.00065481,0.00201211,-0.00069750,0.00246925,0.00001184,0.00035517,-0.
 00202924,-0.00176718,-0.00004302,-0.00004692,0.00022849,-0.00018191,-0
 .00100782,-0.00052673,0.00077345,-0.00007401,-0.00086175,-0.00008656,0
 .00020420,-0.00002449,0.00025188,-0.00021691,0.00007451,-0.01769643,0.
 04045725,-0.01686489,0.00076717,-0.00202383,0.00185165,-0.00201739,-0.
 01167065,-0.00477100,0.00126644,0.00506792,-0.00258859,-0.00060667,-0.
 00034056,0.00015544,0.00052994,0.00010039,0.00013532,0.00044215,-0.000
 21889,0.00081002,-0.00038500,-0.00015408,-0.00064754,0.00011138,-0.000
 02684,0.00013166,0.00734923,-0.00948731,0.00231845,-0.00118167,0.00131
 315,0.00087344,0.01761165,-0.02341344,-0.00306076,0.00208383,0.0038771
 8,0.00162490,-0.10699533,0.14222957,-0.00082401,0.00170073,0.00231762,
 -0.00056311,0.00472307,-0.00078756,-0.00046717,-0.00388754,-0.00200205
 ,0.00014628,-0.00000831,0.00015376,0.00155254,-0.00184923,-0.00028379,
 0.00006895,-0.00031513,0.00074636,-0.00033497,0.00164910,-0.00098118,-
 0.00003511,-0.00029167,0.00003265,-0.01621184,0.01528791,-0.12474758,0
 .00143828,-0.00267662,0.00333534,-0.00136044,-0.01184310,-0.00272323,0
 .00087079,0.00612442,-0.00367387,-0.00046593,-0.00029653,0.00027095,0.
 00016839,0.00025729,-0.00044928,-0.00028159,-0.00021849,0.00001875,0.0
 0003732,0.00014399,-0.00016552,-0.00004362,0.00001908,0.00007923,0.020
 98457,-0.01790208,0.00530616,-0.00486307,-0.00080208,0.00558350,-0.006
 48871,0.00476103,-0.00237577,0.00677069,0.00162594,0.00839541,-0.15257
 578,0.15359936,0.52865727,-0.02209563,-0.01199166,0.01003430,-0.010106
 50,-0.02263621,-0.00508842,-0.00794864,0.03046572,0.02702433,0.0021653
 2,-0.00172179,-0.00111237,-0.00927883,0.02152437,-0.00487315,-0.023618
 20,0.01108116,0.01171229,-0.00888468,-0.02938752,0.02727861,0.00211795
 ,0.00168459,-0.00112229,-0.00161516,-0.00022115,0.00014004,-0.02359292
 ,-0.01107939,-0.01170391,-0.00926580,-0.02152748,0.00487011,-0.0089102
 2,0.02939039,-0.02726295,0.00211866,-0.00168400,0.00112053,-0.01011615
 ,0.02263672,0.00508852,-0.02209451,0.01198136,-0.01001908,-0.00793775,
 -0.03047343,-0.02702529,0.00216538,0.00172284,0.00111283,0.01895906,0.
 00000814,0.00000420,-0.00161475,0.00022101,-0.00014007,0.01657101,0.00
 000456,-0.00000811,-0.00123690,0.00061461,0.00034055,-0.00123575,-0.00
 061513,-0.00033956,0.13781116,-0.00326274,-0.00649326,0.00445802,-0.00
 092451,-0.00197162,0.00128198,0.00346734,0.00398211,-0.00155194,-0.000
 48278,0.00027255,-0.00018968,-0.00115675,-0.00160769,-0.00037975,0.001
 90589,-0.00415918,-0.00518207,-0.00176887,0.00277195,0.00117232,0.0006
 4289,0.00032272,0.00055863,0.00094315,0.00118008,0.00089405,-0.0019018
 4,-0.00415553,-0.00517133,0.00115735,-0.00161138,-0.00038192,0.0017663
 6,0.00277426,0.00117046,-0.00064158,0.00032117,0.00055827,0.00092184,-
 0.00196278,0.00128734,0.00324907,-0.00648258,0.00445098,-0.00347146,0.
 00396832,-0.00156320,0.00048407,0.00027312,-0.00018943,0.00000511,-0.0
 3191227,-0.02957064,-0.00094762,0.00117633,0.00089102,0.00000107,-0.02
 671690,0.02678458,-0.00035119,0.00186063,-0.00025586,0.00035158,0.0018
 5984,-0.00025538,-0.00001967,0.15262140,0.01352881,0.01148107,-0.02090
 389,0.00548020,0.02136458,0.00393229,0.01443227,-0.02696447,-0.0280581
 6,-0.00050476,0.00073898,0.00299797,0.00519314,-0.02080910,0.00199253,
 0.01731212,-0.01353350,-0.02209913,0.01395831,0.02656955,-0.02618955,-
 0.00046833,-0.00081460,0.00292268,0.00048204,0.00130870,-0.00198612,-0
 .01728794,-0.01353214,-0.02210022,-0.00518823,-0.02082097,0.00199371,-
 0.01397432,0.02658568,-0.02617802,0.00047090,-0.00081584,0.00292368,-0
 .00548719,0.02136142,0.00392810,-0.01351921,0.01147369,-0.02088299,-0.
 01441722,-0.02696944,-0.02805083,0.00050399,0.00073950,0.00299841,0.00
 000416,-0.02133162,0.00532830,-0.00048350,0.00130761,-0.00198479,0.000
 00254,0.01820698,0.00640869,0.00040239,-0.00106955,-0.00191652,-0.0004
 0259,-0.00106878,-0.00191783,-0.00003591,0.00868229,0.16891807,0.00027
 153,-0.00528614,0.00356048,-0.00065629,-0.00134252,0.00628265,0.001238
 56,0.00247120,-0.00187619,-0.00081692,0.00013171,-0.00034321,-0.000745
 15,0.00183832,0.00509726,0.00150981,0.00397764,0.00192298,0.00100686,-
 0.00281450,-0.00095861,-0.00066713,-0.00004891,-0.00034652,0.00115797,
 0.00303203,0.00152052,0.00150829,-0.00398279,-0.00192850,-0.00074709,-
 0.00183990,-0.00510100,0.00100655,0.00281719,0.00095958,-0.00066712,0.
 00004862,0.00034705,-0.00065812,0.00133956,-0.00628010,0.00026658,0.00
 528889,-0.00356322,0.00124019,-0.00246874,0.00187743,-0.00081696,-0.00
 013187,0.00034285,-0.00852082,-0.00000372,-0.00000424,0.00115689,-0.00
 303105,-0.00151931,-0.00672250,-0.00000472,0.00000925,0.00049476,-0.00
 363264,0.00121024,0.00049421,0.00363311,-0.00121013,-0.01287915,0.0000
 3278,-0.00000109,0.02247048,-0.00304038,-0.00967788,0.00236600,-0.0013
 5814,-0.00178359,-0.00059739,0.00170086,0.00241584,-0.00122499,-0.0003
 7012,-0.00030368,-0.00012429,0.00421385,-0.00333347,-0.00018313,0.0025
 4600,-0.01169496,-0.00240718,-0.00316608,0.00504900,0.00108226,0.00033
 324,-0.00022237,0.00003846,0.00044317,-0.00366459,-0.00417988,-0.00255
 830,-0.01170311,-0.00243423,-0.00420275,-0.00332406,-0.00017850,0.0031
 6294,0.00503068,0.00109291,-0.00033406,-0.00022108,0.00003826,0.001353
 88,-0.00177841,-0.00060428,0.00305151,-0.00967845,0.00237130,-0.001701
 01,0.00240601,-0.00122758,0.00037016,-0.00030289,-0.00012353,0.0000016
 9,-0.03290563,-0.04891705,-0.00044089,-0.00366447,-0.00417362,-0.00000
 393,-0.02721619,0.05225362,-0.00111324,-0.00506079,0.00189793,0.001114
 03,-0.00506422,0.00189599,0.00002172,-0.08313364,-0.00188813,-0.000022
 92,0.19590569,0.00598570,0.00538580,-0.00235814,0.00571477,0.00070763,
 -0.01321740,-0.00485379,-0.00368212,0.00383877,0.00066547,0.00009178,-
 0.00020203,0.00443383,-0.00148710,-0.00911775,-0.00147433,-0.00452345,
 0.00038488,-0.00231348,0.00493291,-0.00055095,0.00063189,-0.00014207,0
 .00034558,0.00116802,-0.00434991,-0.00092416,0.00146598,-0.00452817,0.
 00037246,-0.00443601,-0.00148390,-0.00911858,0.00231225,0.00492979,-0.
 00054630,-0.00063166,-0.00014241,0.00034534,-0.00571876,0.00070476,-0.
 01321367,-0.00598521,0.00538300,-0.00235265,0.00485481,-0.00368119,0.0
 0383811,-0.00066463,0.00009224,-0.00020260,0.00000008,-0.03957653,-0.0
 6407266,-0.00116510,-0.00434521,-0.00092507,0.00000202,0.04091369,-0.0
 6330129,0.00164981,0.00407284,-0.00081772,-0.00165006,0.00407099,-0.00
 081189,0.00000464,-0.00628612,-0.00713466,0.00000197,0.00252561,0.1852
 1777,0.00046060,-0.00001426,-0.00070180,-0.00022663,-0.00028545,-0.000
 00214,-0.00030604,0.00041418,0.00057014,0.00007845,-0.00005048,-0.0000
 8927,-0.00018757,0.00079671,0.00053911,-0.00052243,0.00024941,0.000371
 52,0.00078356,-0.00036136,-0.00031672,-0.00014519,0.00003471,0.0001058
 8,0.00085845,0.00041117,-0.00096518,0.00041275,-0.00001283,0.00063815,
 -0.00025747,-0.00026284,0.00009037,-0.00025428,0.00035695,-0.00053619,
 0.00008997,-0.00004947,0.00007508,-0.00027764,0.00080639,-0.00056876,-
 0.00056221,0.00031297,-0.00046375,0.00083921,-0.00037490,0.00035030,-0
 .00014732,0.00002867,-0.00010888,-0.00744523,-0.00891308,0.00845622,-0
 .14224039,-0.07365197,0.14009818,-0.00722468,-0.00857335,-0.00779028,-
 0.14341437,-0.07610260,-0.14120870,0.00088916,0.00036287,0.00080141,0.
 00015336,-0.00079430,0.00001269,0.00067358,0.00145406,-0.00012534,0.47
 635475,0.00052049,-0.00005913,-0.00077114,-0.00018020,-0.00042888,-0.0
 0001624,-0.00032277,0.00054124,0.00065854,0.00008523,-0.00003740,-0.00
 009648,0.00025330,-0.00050141,0.00028318,-0.00024909,0.00015492,0.0005
 1722,0.00046517,-0.00049110,-0.00077630,-0.00007926,-0.00001712,0.0000
 7829,0.00122364,-0.00053561,-0.00014703,0.00050023,-0.00006392,0.00073
 459,-0.00021876,-0.00041246,0.00010874,-0.00027956,0.00049966,-0.00064
 255,0.00009331,-0.00004053,0.00008431,0.00017824,-0.00063077,-0.000301
 40,-0.00031178,0.00020428,-0.00065539,0.00049357,-0.00043537,0.0008657
 2,-0.00007723,-0.00001985,-0.00008763,-0.00855353,-0.00683815,0.007496
 87,-0.07375056,-0.13785760,0.13548499,-0.00864867,-0.00706040,-0.00721
 198,-0.07572685,-0.14104423,-0.13914288,0.00141480,-0.00062108,-0.0000
 6976,-0.00041729,-0.00138593,-0.00009509,0.00161575,0.00176330,0.00014
 695,0.26953280,0.46368523,-0.00008778,-0.00002193,-0.00042861,-0.00031
 726,-0.00169971,0.00133073,0.00003589,0.00093228,0.00090161,-0.0001738
 9,-0.00018030,-0.00020604,0.00041279,0.00933545,0.00195033,0.00172622,
 0.00296111,-0.00388464,0.00085341,-0.00741079,0.00382495,-0.00035687,0
 .00010146,-0.00032015,-0.01126706,0.00162942,-0.01065899,0.00020454,0.
 00018281,-0.00019097,0.00079394,0.00178654,0.00135865,-0.00010190,-0.0
 0118580,0.00077231,0.00013374,0.00019818,-0.00018257,-0.00056607,-0.00
 952263,0.00212621,-0.00176738,-0.00301818,-0.00420949,-0.00084993,0.00
 763091,0.00392103,0.00037919,-0.00010256,-0.00032840,0.03682767,0.0331
 1978,-0.01317053,0.10370335,0.10074354,-0.39059472,-0.03686997,-0.0338
 3361,-0.01522126,-0.10519271,-0.10444416,-0.38777999,0.01168545,-0.001
 61413,-0.01044875,-0.00017765,-0.00065210,0.00247660,0.00036852,0.0015
 1921,-0.00275132,-0.00017278,0.00241786,0.83965420,-0.00009400,-0.0000
 1501,0.00014590,-0.00005441,-0.00012958,0.00007412,0.00005125,-0.00000
 090,-0.00003892,-0.00003687,-0.00001962,0.00000534,0.00021112,-0.00062
 484,-0.00029010,0.00002718,-0.00013104,0.00001401,-0.00014332,0.000290
 58,-0.00008737,0.00006857,-0.00003981,-0.00000756,-0.00000399,0.000442
 48,-0.00005532,-0.00012534,0.00000498,-0.00017635,-0.00001566,-0.00009
 344,-0.00005660,0.00004332,-0.00005963,0.00006838,-0.00003533,-0.00001
 635,-0.00000789,0.00022163,-0.00063873,0.00028629,0.00004258,-0.000156
 42,0.00000141,-0.00015401,0.00030338,0.00008481,0.00007009,-0.00004053
 ,0.00000915,0.00200012,0.00009088,-0.00057291,-0.00162722,-0.01935722,
 0.01194724,0.00196258,0.00013433,0.00058027,-0.00174692,-0.01959518,-0
 .01182957,0.00002295,0.00044046,0.00003181,0.00010855,0.00019911,0.000
 03456,-0.00063670,-0.00049855,-0.00003639,-0.17459008,-0.10656526,0.00
 089878,0.17446706,-0.00008400,-0.00001133,0.00012847,-0.00010085,0.000
 05032,0.00007734,0.00006683,-0.00001035,-0.00007453,-0.00001507,-0.000
 01155,0.00002309,0.00016810,0.00012427,-0.00001321,0.00020923,0.000099
 68,-0.00026870,-0.00007339,-0.00025596,0.00018231,0.00002914,-0.000021
 79,-0.00003957,-0.00074708,-0.00006310,-0.00012379,-0.00008797,0.00000
 163,-0.00012457,-0.00007378,0.00005717,-0.00008912,0.00004530,-0.00002
 239,0.00007455,-0.00001801,-0.00001211,-0.00002018,0.00019898,0.000134
 68,0.00001823,0.00023667,0.00007164,0.00031338,-0.00009913,-0.00025777
 ,-0.00020207,0.00002840,-0.00001970,0.00004287,0.00006819,0.00165270,-
 0.00057399,-0.01946167,-0.00040854,0.01235458,0.00011981,0.00166269,0.
 00048520,-0.01983786,-0.00085457,-0.01252814,-0.00077883,-0.00004247,0
 .00018272,-0.00019573,-0.00020295,-0.00000588,0.00030934,0.00019966,0.
 00006114,-0.10633051,-0.16975832,0.00098642,0.14626045,0.16783702,0.00
 000201,0.00001882,0.00003370,0.00015055,0.00028647,-0.00021526,0.00002
 987,-0.00014300,-0.00012728,0.00002378,0.00004067,0.00002191,0.0001537
 0,-0.00048183,-0.00019554,-0.00002885,-0.00006199,0.00004117,-0.000027
 80,0.00015087,-0.00011781,0.00003856,-0.00003149,0.00001888,0.00054499
 ,-0.00018925,0.00042377,-0.00000131,-0.00001948,0.00001189,-0.00017677
 ,-0.00028364,-0.00016969,-0.00003074,0.00014135,-0.00012019,-0.0000166
 8,-0.00004239,0.00001854,-0.00014798,0.00048892,-0.00020888,-0.0000025
 7,0.00005567,0.00004609,0.00003821,-0.00014992,-0.00010349,-0.00003930
 ,0.00003149,0.00001504,-0.00185227,-0.00158691,0.00090310,0.03084741,0
 .02984302,-0.01672546,0.00189665,0.00171060,0.00106830,-0.03062150,-0.
 02996046,-0.01611844,-0.00057757,0.00018597,0.00040114,0.00003040,0.00
 004523,0.00005202,-0.00004460,-0.00017011,0.00001541,0.00084454,0.0009
 5737,-0.03750824,-0.00104304,-0.00083121,0.06911816,-0.00056269,-0.000
 31214,0.00046539,-0.00027729,-0.00080219,0.00056762,0.00083861,0.00037
 255,-0.00035180,-0.00014711,-0.00002865,0.00010899,-0.00025768,0.00026
 261,-0.00009128,0.00041305,0.00001289,-0.00063896,-0.00025402,-0.00035
 695,0.00053690,0.00009000,0.00004951,-0.00007506,-0.14217208,0.0736576
 2,-0.13998982,-0.00052178,-0.00025073,-0.00037035,-0.00018849,-0.00080
 090,-0.00054013,0.00078407,0.00036363,0.00031543,-0.00014550,-0.000034
 89,-0.00010567,-0.00022655,0.00028523,0.00000163,0.00046036,0.00001433
 ,0.00070153,-0.00030573,-0.00041403,-0.00057010,0.00007839,0.00005049,
 0.00008935,-0.00743928,0.00890985,-0.00845818,0.00085883,-0.00041085,0
 .00096511,-0.00723323,0.00857875,0.00779140,0.00088923,-0.00036305,-0.
 00080153,-0.14351608,0.07609865,0.14134964,0.00015266,0.00079493,-0.00
 001310,0.00067438,-0.00145553,0.00012674,-0.00385503,-0.00116757,-0.00
 010156,0.00006272,0.00015078,0.00000883,0.47641357,0.00031137,0.000205
 28,-0.00065425,-0.00017798,-0.00062768,-0.00030185,-0.00049351,-0.0004
 3746,0.00086421,0.00007732,-0.00001979,-0.00008751,0.00021926,-0.00041
 284,0.00010885,-0.00049985,-0.00006367,0.00073481,0.00027909,0.0004995
 9,-0.00064325,-0.00009327,-0.00004067,0.00008437,0.07372787,-0.1379099
 6,0.13555952,0.00024960,0.00015450,0.00051745,-0.00025308,-0.00050318,
 0.00028320,-0.00046533,-0.00049032,-0.00077662,0.00007920,-0.00001711,
 0.00007831,0.00018016,-0.00042792,-0.00001644,-0.00052052,-0.00005948,
 -0.00077098,0.00032234,0.00054113,0.00065811,-0.00008526,-0.00003733,-
 0.00009642,0.00857122,-0.00685337,0.00750231,-0.00122854,-0.00053753,-
 0.00014235,0.00863071,-0.00704420,-0.00720660,-0.00140932,-0.00061940,
 -0.00006523,0.07575112,-0.14095829,-0.13903966,0.00041752,-0.00138586,
 -0.00009525,-0.00161609,0.00176349,0.00014807,0.00116724,0.00153258,0.
 00017918,-0.00017185,-0.00014193,-0.00000745,-0.26953489,0.46362748,0.
 00176929,-0.00301611,-0.00421102,0.00057027,-0.00952045,0.00212303,0.0
 0084653,0.00763007,0.00392139,-0.00037886,-0.00010264,-0.00032838,-0.0
 0079303,0.00178772,0.00135767,-0.00020573,0.00018397,-0.00018960,0.000
 10264,-0.00118554,0.00077214,-0.00013400,0.00019793,-0.00018258,-0.103
 58110,0.10082555,-0.39057136,-0.00172886,0.00296066,-0.00388378,-0.000
 41249,0.00933663,0.00195172,-0.00084828,-0.00741156,0.00382432,0.00035
 693,0.00010234,-0.00032006,0.00032141,-0.00170304,0.00133254,0.0000858
 8,-0.00002518,-0.00043029,-0.00003613,0.00093718,0.00090320,0.00017412
 ,-0.00018060,-0.00020622,-0.03684368,0.03311229,-0.01315189,0.01126565
 ,0.00162949,-0.01066216,0.03685343,-0.03383885,-0.01523293,-0.01168337
 ,-0.00161361,-0.01044639,0.10534274,-0.10434025,-0.38781073,0.00017761
 ,-0.00065061,0.00247764,-0.00036833,0.00152257,-0.00275493,0.00010525,
 0.00018716,0.02021516,0.00002153,-0.00003817,-0.00064695,-0.00006707,0
 .00223443,0.83965907,0.00004256,0.00015647,-0.00000142,0.00022127,0.00
 063853,-0.00028607,-0.00015394,-0.00030339,-0.00008475,0.00007005,0.00
 004053,-0.00000915,-0.00001572,0.00009358,0.00005668,-0.00012531,-0.00
 000492,0.00017641,0.00004326,0.00005954,-0.00006838,-0.00003535,0.0000
 1635,0.00000790,-0.00161727,0.01935012,-0.01193510,0.00002725,0.000130
 94,-0.00001373,0.00021130,0.00062466,0.00029011,-0.00014300,-0.0002902
 5,0.00008722,0.00006858,0.00003989,0.00000755,-0.00005447,0.00012951,-
 0.00007410,-0.00009400,0.00001500,-0.00014593,0.00005125,0.00000093,0.
 00003897,-0.00003688,0.00001959,-0.00000535,0.00200001,-0.00008979,0.0
 0057226,-0.00000341,-0.00044233,0.00005489,0.00196254,-0.00013565,-0.0
 0058102,0.00002218,-0.00044053,-0.00003228,-0.00176480,0.01960179,0.01
 184437,0.00010845,-0.00019924,-0.00003471,-0.00063669,0.00049878,0.000
 03682,0.00006272,0.00017183,-0.00002068,-0.00009584,0.00001265,0.00000
 147,-0.17461331,0.10656547,-0.00091232,0.17449858,-0.00023663,0.000071
 46,0.00031332,-0.00019899,0.00013419,0.00001826,0.00009916,-0.00025760
 ,-0.00020192,-0.00002842,-0.00001973,0.00004284,0.00007347,0.00005733,
 -0.00008899,0.00008800,0.00000172,-0.00012478,-0.00004516,-0.00002265,
 0.00007473,0.00001799,-0.00001207,-0.00002020,0.01946783,-0.00041769,0
 .01236467,-0.00020934,0.00009983,-0.00026870,-0.00016809,0.00012497,-0
 .00001298,0.00007362,-0.00025624,0.00018244,-0.00002909,-0.00002176,-0
 .00003959,0.00010086,0.00005032,0.00007751,0.00008395,-0.00001128,0.00
 012836,-0.00006684,-0.00001027,-0.00007449,0.00001508,-0.00001155,0.00
 002308,-0.00006906,0.00165283,-0.00057334,0.00074711,-0.00006293,-0.00
 012410,-0.00011827,0.00166277,0.00048545,0.00077875,-0.00004276,0.0001
 8245,0.01983099,-0.00083698,-0.01251505,0.00019573,-0.00020289,-0.0000
 0571,-0.00030963,0.00019984,0.00006096,-0.00015075,-0.00014195,-0.0000
 3825,-0.00001271,0.00020334,0.00000268,0.10633054,-0.16973605,0.000978
 63,-0.14626009,0.16780580,0.00000243,0.00005577,0.00004641,0.00014771,
 0.00048951,-0.00020885,-0.00003819,-0.00015032,-0.00010373,0.00003930,
 0.00003151,0.00001506,0.00017652,-0.00028367,-0.00016951,0.00000137,-0
 .00001951,0.00001179,0.00003069,0.00014122,-0.00012023,0.00001672,-0.0
 0004236,0.00001855,-0.03084052,0.02984910,-0.01672445,0.00002882,-0.00
 006162,0.00004092,-0.00015370,-0.00048104,-0.00019534,0.00002750,0.000
 15039,-0.00011757,-0.00003849,-0.00003152,0.00001885,-0.00015106,0.000
 28677,-0.00021559,-0.00000190,0.00001913,0.00003387,-0.00002975,-0.000
 14352,-0.00012737,-0.00002381,0.00004069,0.00002192,0.00185365,-0.0015
 8478,0.00090164,-0.00054425,-0.00018938,0.00042406,-0.00189492,0.00171
 261,0.00106947,0.00057822,0.00018578,0.00040109,0.03063381,-0.02994806
 ,-0.01611911,-0.00003020,0.00004485,0.00005200,0.00004428,-0.00017023,
 0.00001545,-0.00000903,-0.00000791,-0.00064708,-0.00000158,0.00000284,
 0.00006811,-0.00085394,0.00095103,-0.03750862,0.00103034,-0.00084728,0
 .06911826\\0.00000933,-0.00000494,-0.00004841,-0.00005703,0.00003570,0
 .00003741,0.00004075,0.00000075,0.00000433,-0.00002822,-0.00002093,0.0
 0002499,-0.00005173,-0.00006923,0.00002655,0.00014063,-0.00007439,-0.0
 0012434,-0.00005841,0.00002126,0.00000864,0.00002379,-0.00001716,-0.00
 002307,0.00000611,-0.00008673,0.00001392,-0.00013703,-0.00007333,-0.00
 012493,0.00004928,-0.00006953,0.00002570,0.00005813,0.00002269,0.00000
 879,-0.00002389,-0.00001727,-0.00002281,0.00005681,0.00003660,0.000035
 52,-0.00000472,-0.00000475,-0.00005014,-0.00004406,-0.00000165,0.00000
 755,0.00002906,-0.00002045,0.00002419,0.00000030,0.00018143,0.00005879
 ,-0.00000703,-0.00008651,0.00001380,0.00000010,0.00004451,-0.00002250,
 0.00000225,0.00001637,0.00002123,-0.00000048,0.00001750,0.00002191,-0.
 00000285,0.00000025,0.00001350,-0.00000076,0.00005122,0.00010739,-0.00
 005503,0.00004925,-0.00002465,0.00002676,0.00001020,0.00000583,0.00005
 508,0.00004934,-0.00002506,-0.00002711,0.00000979,0.00000587\\\@
 The archive entry for this job was punched.


    THE DOUGHNUT CREED
 AS YOU RAMBLE ON THROUGH LIFE, BROTHER
 WHATEVER BE YOUR GOAL
 KEEP YOUR EYE UPON THE DOUGHNUT
 AND NOT UPON THE HOLE.
 Job cpu time:       0 days 16 hours 36 minutes  4.8 seconds.
 Elapsed time:       0 days  8 hours 20 minutes 12.6 seconds.
 File lengths (MBytes):  RWF=   3217 Int=      0 D2E=      0 Chk=     99 Scr=      1
 Normal termination of Gaussian 16 at Sun Jan 22 01:11:27 2023.
