 Entering Gaussian System, Link 0=g16
 Input=FeFeFe-A-0xH2O-opt.gjf
 Output=FeFeFe-A-0xH2O-opt.log
 AtFile(1): /zfs/curium/svicchi/00-MOF/01-Gaussian/zw-basis-set/def2-TZVP/H.gbs
            !----------------------------------------------------------------------
            ! Basis Set Exchange
            ! Version v0.9
            ! https://www.basissetexchange.org
            !----------------------------------------------------------------------
            !   Basis set: def2-TZVP
            ! Description: def2-TZVP
            !        Role: orbital
            !     Version: 1  (Data from Turbomole 7.3)
            !----------------------------------------------------------------------
            H     0
            S    3   1.00
                 34.0613410              0.60251978D-02
                  5.1235746              0.45021094D-01
                  1.1646626              0.20189726
            S    1   1.00
                  0.32723041             1.0000000
            S    1   1.00
                  0.10307241             1.0000000
            P    1   1.00
                  0.8000000              1.0000000
 AtFile(1): /zfs/curium/svicchi/00-MOF/01-Gaussian/zw-basis-set/def2-TZVP/O.gbs
            !----------------------------------------------------------------------
            ! Basis Set Exchange
            ! Version v0.9
            ! https://www.basissetexchange.org
            !----------------------------------------------------------------------
            !   Basis set: def2-TZVP
            ! Description: def2-TZVP
            !        Role: orbital
            !     Version: 1  (Data from Turbomole 7.3)
            !----------------------------------------------------------------------
            O     0
            S    6   1.00
              27032.3826310              0.21726302465D-03
               4052.3871392              0.16838662199D-02
                922.32722710             0.87395616265D-02
                261.24070989             0.35239968808D-01
                 85.354641351            0.11153519115
                 31.035035245            0.25588953961
            S    2   1.00
                 12.260860728            0.39768730901
                  4.9987076005           0.24627849430
            S    1   1.00
                  1.1703108158           1.0000000
            S    1   1.00
                  0.46474740994          1.0000000
            S    1   1.00
                  0.18504536357          1.0000000
            P    4   1.00
                 63.274954801            0.60685103418D-02
                 14.627049379            0.41912575824D-01
                  4.4501223456           0.16153841088
                  1.5275799647           0.35706951311
            P    1   1.00
                  0.52935117943           .44794207502
            P    1   1.00
                  0.17478421270           .24446069663
            D    1   1.00
                  2.31400000             1.0000000
            D    1   1.00
                  0.64500000             1.0000000
            F    1   1.00
                  1.42800000             1.0000000
 AtFile(1): /zfs/curium/svicchi/00-MOF/01-Gaussian/zw-basis-set/def2-TZVP/C.gbs
            !----------------------------------------------------------------------
            ! Basis Set Exchange
            ! Version v0.9
            ! https://www.basissetexchange.org
            !----------------------------------------------------------------------
            !   Basis set: def2-TZVP
            ! Description: def2-TZVP
            !        Role: orbital
            !     Version: 1  (Data from Turbomole 7.3)
            !----------------------------------------------------------------------
            C     0
            S    6   1.00
              13575.3496820              0.22245814352D-03
               2035.2333680              0.17232738252D-02
                463.22562359             0.89255715314D-02
                131.20019598             0.35727984502D-01
                 42.853015891            0.11076259931
                 15.584185766            0.24295627626
            S    2   1.00
                  6.2067138508           0.41440263448
                  2.5764896527           0.23744968655
            S    1   1.00
                  0.57696339419          1.0000000
            S    1   1.00
                  0.22972831358          1.0000000
            S    1   1.00
                  0.95164440028D-01      1.0000000
            P    4   1.00
                 34.697232244            0.53333657805D-02
                  7.9582622826           0.35864109092D-01
                  2.3780826883           0.14215873329
                  0.81433208183          0.34270471845
            P    1   1.00
                  0.28887547253           .46445822433
            P    1   1.00
                  0.10056823671           .24955789874
            D    1   1.00
                  1.09700000             1.0000000
            D    1   1.00
                  0.31800000             1.0000000
            F    1   1.00
                  0.76100000             1.0000000
 AtFile(1): /zfs/curium/svicchi/00-MOF/01-Gaussian/zw-basis-set/def2-TZVP/Fe.gbs
            !----------------------------------------------------------------------
            ! Basis Set Exchange
            ! Version v0.9
            ! https://www.basissetexchange.org
            !----------------------------------------------------------------------
            !   Basis set: def2-TZVP
            ! Description: def2-TZVP
            !        Role: orbital
            !     Version: 1  (Data from Turbomole 7.3)
            !----------------------------------------------------------------------
            Fe     0
            S    8   1.00
             300784.8463700              0.22806273096D-03
              45088.9705570              0.17681788761D-02
              10262.5163170              0.91927083490D-02
               2905.2897293              0.37355495807D-01
                946.11487137             0.12151108426
                339.87832894             0.28818881468
                131.94425588             0.41126612677
                 52.111494077            0.21518583573
            S    4   1.00
                329.48839267            -0.24745216477D-01
                101.92332739            -0.11683089050
                 16.240462745            0.55293621136
                  6.8840675801           0.53601640182
            S    2   1.00
                 10.470693782           -0.22912708577
                  1.7360039648           0.71159319984
            S    1   1.00
                  0.72577288979          1.0000000
            S    1   1.00
                  0.11595528203          1.0000000
            S    1   1.00
                  0.41968227746D-01      1.0000000
            P    6   1.00
               1585.3959970              0.23793960179D-02
                375.38006499             0.19253154755D-01
                120.31816501             0.90021836536D-01
                 44.788749031            0.25798172356
                 17.829278584            0.41492649744
                  7.2247153786           0.24207474784
            P    3   1.00
                 28.143219756           -0.29041755152D-01
                  3.8743241412           0.55312260343
                  1.5410752281           0.96771136842
            P    1   1.00
                  0.58285615250          1.0000000
            P    1   1.00
                  0.1349150              1.0000000
            D    4   1.00
                 61.996675034            0.11971972255D-01
                 17.873732552            0.73210135410D-01
                  6.2744782934           0.23103094314
                  2.3552337175           0.39910706494
            D    1   1.00
                  0.85432239901           .41391589765
            D    1   1.00
                  0.27869254413           .21909269782
            D    1   1.00
                  0.0910000              1.0000000
            F    1   1.00
                  1.5980000              1.0000000
 Initial command:
 /software/commercial/gaussian/g16/AVX2/g16/l1.exe "/scratch1/svicchi/G09-55811.pbs02/Gau-699263.inp" -scrdir="/scratch1/svicchi/G09-55811.pbs02/"
 Entering Link 1 = /software/commercial/gaussian/g16/AVX2/g16/l1.exe PID=    699264.
  
 Copyright (c) 1988-2021, Gaussian, Inc.  All Rights Reserved.
  
 This is part of the Gaussian(R) 16 program.  It is based on
 the Gaussian(R) 09 system (copyright 2009, Gaussian, Inc.),
 the Gaussian(R) 03 system (copyright 2003, Gaussian, Inc.),
 the Gaussian(R) 98 system (copyright 1998, Gaussian, Inc.),
 the Gaussian(R) 94 system (copyright 1995, Gaussian, Inc.),
 the Gaussian 92(TM) system (copyright 1992, Gaussian, Inc.),
 the Gaussian 90(TM) system (copyright 1990, Gaussian, Inc.),
 the Gaussian 88(TM) system (copyright 1988, Gaussian, Inc.),
 the Gaussian 86(TM) system (copyright 1986, Carnegie Mellon
 University), and the Gaussian 82(TM) system (copyright 1983,
 Carnegie Mellon University). Gaussian is a federally registered
 trademark of Gaussian, Inc.
  
 This software contains proprietary and confidential information,
 including trade secrets, belonging to Gaussian, Inc.
  
 This software is provided under written license and may be
 used, copied, transmitted, or stored only in accord with that
 written license.
  
 The following legend is applicable only to US Government
 contracts under FAR:
  
                    RESTRICTED RIGHTS LEGEND
  
 Use, reproduction and disclosure by the US Government is
 subject to restrictions as set forth in subparagraphs (a)
 and (c) of the Commercial Computer Software - Restricted
 Rights clause in FAR 52.227-19.
  
 Gaussian, Inc.
 340 Quinnipiac St., Bldg. 40, Wallingford CT 06492
  
  
 ---------------------------------------------------------------
 Warning -- This program may not be used in any manner that
 competes with the business of Gaussian, Inc. or will provide
 assistance to any competitor of Gaussian, Inc.  The licensee
 of this program is prohibited from giving any competitor of
 Gaussian, Inc. access to this program.  By using this program,
 the user acknowledges that Gaussian, Inc. is engaged in the
 business of creating and licensing software in the field of
 computational chemistry and represents and warrants to the
 licensee that it is not a competitor of Gaussian, Inc. and that
 it will not use this program in any manner prohibited above.
 ---------------------------------------------------------------
  

 Cite this work as:
 Gaussian 16, Revision C.02,
 M. J. Frisch, G. W. Trucks, H. B. Schlegel, G. E. Scuseria, 
 M. A. Robb, J. R. Cheeseman, G. Scalmani, V. Barone, 
 G. A. Petersson, H. Nakatsuji, X. Li, M. Caricato, A. V. Marenich, 
 J. Bloino, B. G. Janesko, R. Gomperts, B. Mennucci, H. P. Hratchian, 
 J. V. Ortiz, A. F. Izmaylov, J. L. Sonnenberg, D. Williams-Young, 
 F. Ding, F. Lipparini, F. Egidi, J. Goings, B. Peng, A. Petrone, 
 T. Henderson, D. Ranasinghe, V. G. Zakrzewski, J. Gao, N. Rega, 
 G. Zheng, W. Liang, M. Hada, M. Ehara, K. Toyota, R. Fukuda, 
 J. Hasegawa, M. Ishida, T. Nakajima, Y. Honda, O. Kitao, H. Nakai, 
 T. Vreven, K. Throssell, J. A. Montgomery, Jr., J. E. Peralta, 
 F. Ogliaro, M. J. Bearpark, J. J. Heyd, E. N. Brothers, K. N. Kudin, 
 V. N. Staroverov, T. A. Keith, R. Kobayashi, J. Normand, 
 K. Raghavachari, A. P. Rendell, J. C. Burant, S. S. Iyengar, 
 J. Tomasi, M. Cossi, J. M. Millam, M. Klene, C. Adamo, R. Cammi, 
 J. W. Ochterski, R. L. Martin, K. Morokuma, O. Farkas, 
 J. B. Foresman, and D. J. Fox, Gaussian, Inc., Wallingford CT, 2019.
 
 ******************************************
 Gaussian 16:  ES64L-G16RevC.02  7-Dec-2021
                21-Jan-2023 
 ******************************************
 %NProcShared=2
 Will use up to    2 processors via shared memory.
 %mem=110gb
 %chk=/scratch1/svicchi/G09-55811.pbs02/00-opt/FeFeFe-A-0xH2O-opt.chk
 ----------------------------------------------------------------------
 #p opt=(cartesian,maxcycle=500) gen um06l int=grid=ultrafine scf=(xqc,
 intrep,maxconventionalcycle=150) pop=(hirshfeld) nosymm
 ----------------------------------------------------------------------
 1/6=500,10=7,18=10,26=4,38=1/1,3;
 2/12=2,15=1,17=6,18=5,29=2,40=1/2;
 3/5=7,11=2,25=1,30=1,71=1,74=-53,75=-5,116=2/1,2,3;
 4//1;
 5/5=2,8=3,13=1,17=20,38=5,85=150/2,8;
 6/7=2,8=2,9=2,10=2,28=1,79=1/1;
 7/7=1,29=1,30=1/1,2,3,16;
 1/6=500,10=7,18=10,26=4/3(2);
 2/15=1,29=1/2;
 99/12=1/99;
 2/15=1,29=1/2;
 3/5=7,6=1,11=2,25=1,30=1,71=1,74=-53,75=-5,82=7,116=2/1,2,3;
 4/5=5,16=3,69=1/1;
 5/5=2,8=3,13=1,17=20,38=5,85=150/2,8;
 7/7=1,30=1/1,2,3,16;
 1/6=500,18=10,26=4/3(-5);
 2/15=1,29=1/2;
 6/7=2,8=2,9=2,10=2,19=2,28=1,79=1/1;
 99/9=1,12=1/99;
 Leave Link    1 at Sat Jan 21 14:02:19 2023, MaxMem= 14763950080 cpu:               0.0 elap:               0.1
 (Enter /software/commercial/gaussian/g16/AVX2/g16/l101.exe)
 --------------
 FeFeFe-A-0xH2O
 --------------
 Symbolic Z-matrix:
 Charge =  0 Multiplicity =15
 O                    -1.39653  -2.15505   1.49746 
 O                    -1.42493  -0.15792   2.55676 
 C                    -1.80566  -1.33336   2.35477 
 H                    -2.61114  -1.69829   3.01517 
 O                     1.42217  -0.17278  -2.44831 
 O                     1.40424  -2.16544  -1.38738 
 C                     1.81233  -1.34529  -2.24653 
 H                     2.62134  -1.70617  -2.90409 
 O                    -1.4289    2.34363   1.18647 
 O                    -1.40356  -2.16531  -1.38757 
 O                    -1.423    -0.17236  -2.44796 
 C                    -1.8125   -1.34511  -2.24628 
 H                    -2.6217   -1.7062   -2.9035 
 O                     1.42511  -0.15719   2.55669 
 O                     1.39738  -2.15431   1.49736 
 C                     1.80622  -1.33252   2.3547 
 H                     2.61181  -1.69718   3.01511 
 Fe                   -0.00014   0.97164   1.62478 
 O                     1.4282    2.34405   1.18603 
 Fe                   -0.00014   0.95293  -1.52287 
 O                     1.4236    2.33013  -1.0701 
 O                    -1.4235    2.33046  -1.06966 
 Fe                    0.00025  -1.94162   0.04589 
 O                    -0.00015  -0.07191   0.07215 
 C                     1.81522   2.72152   0.05442 
 H                     2.60406   3.49263   0.04883 
 C                    -1.81557   2.72143   0.05485 
 H                    -2.60449   3.49245   0.04925 
 
 ITRead=  0  0  0  0  0  0  0  0  0  0  0  0  0  0  0  0  0  0  0  0
 ITRead=  0  0  0  0  0  0  0  0
 MicOpt= -1 -1 -1 -1 -1 -1 -1 -1 -1 -1 -1 -1 -1 -1 -1 -1 -1 -1 -1 -1
 MicOpt= -1 -1 -1 -1 -1 -1 -1 -1
 NAtoms=     28 NQM=       28 NQMF=       0 NMMI=      0 NMMIF=      0
                NMic=       0 NMicF=      0.
                    Isotopes and Nuclear Properties:
 (Nuclear quadrupole moments (NQMom) in fm**2, nuclear magnetic moments (NMagM)
  in nuclear magnetons)

  Atom         1           2           3           4           5           6           7           8           9          10
 IAtWgt=          16          16          12           1          16          16          12           1          16          16
 AtmWgt=  15.9949146  15.9949146  12.0000000   1.0078250  15.9949146  15.9949146  12.0000000   1.0078250  15.9949146  15.9949146
 NucSpn=           0           0           0           1           0           0           0           1           0           0
 AtZEff=  -0.0000000  -0.0000000  -0.0000000  -0.0000000  -0.0000000  -0.0000000  -0.0000000  -0.0000000  -0.0000000  -0.0000000
 NQMom=    0.0000000   0.0000000   0.0000000   0.0000000   0.0000000   0.0000000   0.0000000   0.0000000   0.0000000   0.0000000
 NMagM=    0.0000000   0.0000000   0.0000000   2.7928460   0.0000000   0.0000000   0.0000000   2.7928460   0.0000000   0.0000000
 AtZNuc=   8.0000000   8.0000000   6.0000000   1.0000000   8.0000000   8.0000000   6.0000000   1.0000000   8.0000000   8.0000000

  Atom        11          12          13          14          15          16          17          18          19          20
 IAtWgt=          16          12           1          16          16          12           1          56          16          56
 AtmWgt=  15.9949146  12.0000000   1.0078250  15.9949146  15.9949146  12.0000000   1.0078250  55.9349393  15.9949146  55.9349393
 NucSpn=           0           0           1           0           0           0           1           0           0           0
 AtZEff=  -0.0000000  -0.0000000  -0.0000000  -0.0000000  -0.0000000  -0.0000000  -0.0000000  -0.0000000  -0.0000000  -0.0000000
 NQMom=    0.0000000   0.0000000   0.0000000   0.0000000   0.0000000   0.0000000   0.0000000   0.0000000   0.0000000   0.0000000
 NMagM=    0.0000000   0.0000000   2.7928460   0.0000000   0.0000000   0.0000000   2.7928460   0.0000000   0.0000000   0.0000000
 AtZNuc=   8.0000000   6.0000000   1.0000000   8.0000000   8.0000000   6.0000000   1.0000000  26.0000000   8.0000000  26.0000000

  Atom        21          22          23          24          25          26          27          28
 IAtWgt=          16          16          56          16          12           1          12           1
 AtmWgt=  15.9949146  15.9949146  55.9349393  15.9949146  12.0000000   1.0078250  12.0000000   1.0078250
 NucSpn=           0           0           0           0           0           1           0           1
 AtZEff=  -0.0000000  -0.0000000  -0.0000000  -0.0000000  -0.0000000  -0.0000000  -0.0000000  -0.0000000
 NQMom=    0.0000000   0.0000000   0.0000000   0.0000000   0.0000000   0.0000000   0.0000000   0.0000000
 NMagM=    0.0000000   0.0000000   0.0000000   0.0000000   0.0000000   2.7928460   0.0000000   2.7928460
 AtZNuc=   8.0000000   8.0000000  26.0000000   8.0000000   6.0000000   1.0000000   6.0000000   1.0000000
 Leave Link  101 at Sat Jan 21 14:02:20 2023, MaxMem= 14763950080 cpu:               0.1 elap:               0.2
 (Enter /software/commercial/gaussian/g16/AVX2/g16/l103.exe)

 GradGradGradGradGradGradGradGradGradGradGradGradGradGradGradGradGradGrad
 Berny optimization.
 Initialization pass.
 No Z-matrix variables, so optimization will use Cartesian coordinates.
 Trust Radius=3.00D-01 FncErr=1.00D-07 GrdErr=1.00D-06 EigMax=2.50D+02 EigMin=1.00D-04
 Number of steps in this run=    168 maximum allowed number of steps=    168.
 GradGradGradGradGradGradGradGradGradGradGradGradGradGradGradGradGradGrad

 Leave Link  103 at Sat Jan 21 14:02:20 2023, MaxMem= 14763950080 cpu:               0.1 elap:               0.1
 (Enter /software/commercial/gaussian/g16/AVX2/g16/l202.exe)
 ---------------------------------------------------------------------------------------------------
                            Z-MATRIX (ANGSTROMS AND DEGREES)
   CD    Cent   Atom    N1       Length/X        N2       Alpha/Y        N3        Beta/Z          J
 ---------------------------------------------------------------------------------------------------
      1      1  O        0  -1.396531         -2.155054          1.497463
      2      2  O        0  -1.424930         -0.157920          2.556757
      3      3  C        0  -1.805663         -1.333358          2.354771
      4      4  H        0  -2.611140         -1.698287          3.015173
      5      5  O        0   1.422169         -0.172777         -2.448308
      6      6  O        0   1.404243         -2.165443         -1.387375
      7      7  C        0   1.812328         -1.345288         -2.246529
      8      8  H        0   2.621337         -1.706174         -2.904091
      9      9  O        0  -1.428899          2.343626          1.186474
     10     10  O        0  -1.403563         -2.165307         -1.387572
     11     11  O        0  -1.422999         -0.172363         -2.447965
     12     12  C        0  -1.812500         -1.345106         -2.246279
     13     13  H        0  -2.621699         -1.706195         -2.903497
     14     14  O        0   1.425112         -0.157195          2.556694
     15     15  O        0   1.397382         -2.154306          1.497361
     16     16  C        0   1.806222         -1.332525          2.354700
     17     17  H        0   2.611813         -1.697184          3.015111
     18     18  Fe       0  -0.000143          0.971643          1.624782
     19     19  O        0   1.428199          2.344050          1.186026
     20     20  Fe       0  -0.000136          0.952928         -1.522873
     21     21  O        0   1.423595          2.330128         -1.070103
     22     22  O        0  -1.423504          2.330457         -1.069657
     23     23  Fe       0   0.000255         -1.941620          0.045889
     24     24  O        0  -0.000152         -0.071915          0.072148
     25     25  C        0   1.815220          2.721515          0.054422
     26     26  H        0   2.604057          3.492625          0.048831
     27     27  C        0  -1.815569          2.721425          0.054846
     28     28  H        0  -2.604489          3.492449          0.049251
 ---------------------------------------------------------------------------------------------------
                         Z-Matrix orientation:                         
 ---------------------------------------------------------------------
 Center     Atomic      Atomic             Coordinates (Angstroms)
 Number     Number       Type             X           Y           Z
 ---------------------------------------------------------------------
      1          8           0       -1.396531   -2.155054    1.497463
      2          8           0       -1.424930   -0.157920    2.556757
      3          6           0       -1.805663   -1.333358    2.354771
      4          1           0       -2.611140   -1.698287    3.015173
      5          8           0        1.422169   -0.172777   -2.448308
      6          8           0        1.404243   -2.165443   -1.387375
      7          6           0        1.812328   -1.345288   -2.246529
      8          1           0        2.621337   -1.706174   -2.904091
      9          8           0       -1.428899    2.343626    1.186474
     10          8           0       -1.403563   -2.165307   -1.387572
     11          8           0       -1.422999   -0.172363   -2.447965
     12          6           0       -1.812500   -1.345106   -2.246279
     13          1           0       -2.621699   -1.706195   -2.903497
     14          8           0        1.425112   -0.157195    2.556694
     15          8           0        1.397382   -2.154306    1.497361
     16          6           0        1.806222   -1.332525    2.354700
     17          1           0        2.611813   -1.697184    3.015111
     18         26           0       -0.000143    0.971643    1.624782
     19          8           0        1.428199    2.344050    1.186026
     20         26           0       -0.000136    0.952928   -1.522873
     21          8           0        1.423595    2.330128   -1.070103
     22          8           0       -1.423504    2.330457   -1.069657
     23         26           0        0.000255   -1.941620    0.045889
     24          8           0       -0.000152   -0.071915    0.072148
     25          6           0        1.815220    2.721515    0.054422
     26          1           0        2.604057    3.492625    0.048831
     27          6           0       -1.815569    2.721425    0.054846
     28          1           0       -2.604489    3.492449    0.049251
 ---------------------------------------------------------------------
                    Distance matrix (angstroms):
                    1          2          3          4          5
     1  O    0.000000
     2  O    2.260852   0.000000
     3  C    1.256005   1.251962   0.000000
     4  H    1.996836   1.997491   1.103674   0.000000
     5  O    5.238664   5.758201   5.902153   6.960200   0.000000
     6  O    4.020788   5.252671   4.999952   5.976953   2.257569
     7  C    4.996996   5.912803   5.853372   6.883108   1.252087
     8  H    5.976490   6.970669   6.884253   7.900415   1.999262
     9  O    4.509532   2.852267   3.876477   4.591176   5.260467
    10  O    2.885062   4.425810   3.854731   4.589173   3.616642
    11  O    4.415673   5.004743   4.955866   5.795343   2.845168
    12  C    3.852876   4.962739   4.601070   5.333427   3.446485
    13  H    4.590312   5.800326   5.334257   5.918684   4.348729
    14  O    3.615948   2.850042   3.444132   4.344710   5.005027
    15  O    2.793913   3.615705   3.415934   4.310447   4.415356
    16  C    3.415996   3.443961   3.611885   4.481416   4.955946
    17  H    4.310420   4.344504   4.481352   5.222953   5.795517
    18  Fe   3.426710   2.043161   3.017584   3.984848   4.463489
    19  O    5.321468   4.034737   5.034596   6.000210   4.420728
    20  Fe   4.553229   4.461771   4.850067   5.868572   2.036319
    21  O    5.887475   5.240095   5.964813   7.014036   2.857268
    22  O    5.168234   4.398057   5.029541   5.858933   4.032953
    23  Fe   2.025743   3.393700   2.993703   3.961722   3.372190
    24  O    2.884591   2.865427   3.171983   4.257198   2.895837
    25  C    6.014868   5.005138   5.902914   6.920503   3.846436
    26  H    7.071033   5.987396   6.932034   7.933665   4.589960
    27  C    5.102625   3.834421   4.661653   5.378691   5.012498
    28  H    5.954055   4.583028   5.407583   5.978334   5.990464
                    6          7          8          9         10
     6  O    0.000000
     7  C    1.255918   0.000000
     8  H    1.998167   1.103232   0.000000
     9  O    5.914651   5.991590   7.038324   0.000000
    10  O    2.807806   3.428147   4.325558   5.191997   0.000000
    11  O    3.618082   3.447269   4.349399   4.420337   2.257573
    12  C    3.429010   3.624828   4.496888   5.053482   1.255921
    13  H    4.326401   4.496938   5.243036   5.878068   1.998166
    14  O    4.425966   4.963109   5.800901   4.034475   5.252728
    15  O    2.884766   3.852713   4.590388   5.321269   4.020976
    16  C    3.854668   4.601251   5.334689   5.034367   5.000085
    17  H    4.589049   5.333654   5.919216   5.999951   5.977123
    18  Fe   4.570197   4.862126   5.878226   2.028743   4.569937
    19  O    5.192157   5.053831   5.878516   2.857098   5.914100
    20  Fe   3.422700   3.015046   3.981294   3.363921   3.422178
    21  O    4.506794   3.878631   4.592366   3.637176   5.320014
    22  O    5.320734   5.036540   6.001689   2.256175   4.507035
    23  Fe   2.018793   2.982348   3.953212   4.659050   2.018799
    24  O    2.912970   3.206685   4.289639   3.019582   2.912496
    25  C    5.111755   4.672609   5.385819   3.456682   6.026686
    26  H    5.959528   5.413033   5.978926   4.345017   7.080711
    27  C    6.027327   5.915752   6.931455   1.254123   5.111797
    28  H    7.081354   6.941367   7.940854   1.998770   5.959605
                   11         12         13         14         15
    11  O    0.000000
    12  C    1.252084   0.000000
    13  H    1.999258   1.103233   0.000000
    14  O    5.758348   5.912852   6.970636   0.000000
    15  O    5.239107   4.997298   5.976735   2.260842   0.000000
    16  C    5.902494   5.853573   6.884384   1.251977   1.255987
    17  H    6.960602   6.883367   7.900610   1.997491   1.996839
    18  Fe   4.463243   4.861798   5.877813   2.043058   3.426495
    19  O    5.259995   5.991054   7.037781   2.852186   4.509222
    20  Fe   2.036323   3.014787   3.981162   4.461678   4.552996
    21  O    4.032872   5.036174   6.001470   4.397776   5.167466
    22  O    2.857243   3.878855   4.592733   5.239604   5.887280
    23  Fe   3.372718   2.982607   3.953346   3.393897   2.025826
    24  O    2.895782   3.206357   4.289271   2.865592   2.884560
    25  C    5.012238   5.915318   6.931101   3.834125   5.101989
    26  H    5.990268   6.940977   7.940561   4.582627   5.953329
    27  C    3.846061   4.672458   5.385672   5.004768   6.014703
    28  H    4.589428   5.412822   5.978705   5.987058   7.070915
                   16         17         18         19         20
    16  C    0.000000
    17  H    1.103674   0.000000
    18  Fe   3.017436   3.984716   0.000000
    19  O    3.876326   4.591086   2.028834   0.000000
    20  Fe   4.849927   5.868447   3.147711   3.363554   0.000000
    21  O    5.028987   5.858334   3.336903   2.256177   2.031918
    22  O    5.964460   7.013630   3.336515   3.636000   2.031986
    23  Fe   2.993848   3.961851   3.313609   4.658959   3.292327
    24  O    3.172092   4.257334   1.870745   3.019569   1.895889
    25  C    4.661180   5.378210   2.970459   1.254110   2.985177
    26  H    5.407000   5.977708   3.952320   1.998770   3.962593
    27  C    5.902644   6.920187   2.970220   3.456010   2.985394
    28  H    6.931799   7.933374   3.952136   4.344381   3.962751
                   21         22         23         24         25
    21  O    0.000000
    22  O    2.847099   0.000000
    23  Fe   4.638875   4.639199   0.000000
    24  O    3.016887   3.016793   1.869889   0.000000
    25  C    1.253440   3.450480   5.003898   3.331538   0.000000
    26  H    1.999226   4.338537   6.025845   4.414566   1.103135
    27  C    3.451204   1.253427   5.004127   3.331484   3.630789
    28  H    4.339286   1.999226   6.026094   4.414497   4.486446
                   26         27         28
    26  H    0.000000
    27  C    4.486411   0.000000
    28  H    5.208546   1.103134   0.000000
 Symmetry turned off by external request.
 Stoichiometry    C6H6Fe3O13(15)
 Framework group  C1[X(C6H6Fe3O13)]
 Deg. of freedom    78
 Full point group                 C1      NOp   1
 Rotational constants (GHZ):           0.2740612           0.2621956           0.2066148
 Leave Link  202 at Sat Jan 21 14:02:21 2023, MaxMem= 14763950080 cpu:               0.0 elap:               0.1
 (Enter /software/commercial/gaussian/g16/AVX2/g16/l301.exe)
 General basis read from cards:  (5D, 7F)
 Centers:       4      8     13     17     26     28
 S 3 1.00
     Exponent=  3.4061341000D+01 Coefficients=  6.0251978000D-03
     Exponent=  5.1235746000D+00 Coefficients=  4.5021094000D-02
     Exponent=  1.1646626000D+00 Coefficients=  2.0189726000D-01
 S 1 1.00
     Exponent=  3.2723041000D-01 Coefficients=  1.0000000000D+00
 S 1 1.00
     Exponent=  1.0307241000D-01 Coefficients=  1.0000000000D+00
 P 1 1.00
     Exponent=  8.0000000000D-01 Coefficients=  1.0000000000D+00
 ****
 Centers:       1      2      5      6      9     10     11     14     15     19
 Centers:      21     22     24
 S 6 1.00
     Exponent=  2.7032382631D+04 Coefficients=  2.1726302465D-04
     Exponent=  4.0523871392D+03 Coefficients=  1.6838662199D-03
     Exponent=  9.2232722710D+02 Coefficients=  8.7395616265D-03
     Exponent=  2.6124070989D+02 Coefficients=  3.5239968808D-02
     Exponent=  8.5354641351D+01 Coefficients=  1.1153519115D-01
     Exponent=  3.1035035245D+01 Coefficients=  2.5588953961D-01
 S 2 1.00
     Exponent=  1.2260860728D+01 Coefficients=  3.9768730901D-01
     Exponent=  4.9987076005D+00 Coefficients=  2.4627849430D-01
 S 1 1.00
     Exponent=  1.1703108158D+00 Coefficients=  1.0000000000D+00
 S 1 1.00
     Exponent=  4.6474740994D-01 Coefficients=  1.0000000000D+00
 S 1 1.00
     Exponent=  1.8504536357D-01 Coefficients=  1.0000000000D+00
 P 4 1.00
     Exponent=  6.3274954801D+01 Coefficients=  6.0685103418D-03
     Exponent=  1.4627049379D+01 Coefficients=  4.1912575824D-02
     Exponent=  4.4501223456D+00 Coefficients=  1.6153841088D-01
     Exponent=  1.5275799647D+00 Coefficients=  3.5706951311D-01
 P 1 1.00
     Exponent=  5.2935117943D-01 Coefficients=  4.4794207502D-01
 P 1 1.00
     Exponent=  1.7478421270D-01 Coefficients=  2.4446069663D-01
 D 1 1.00
     Exponent=  2.3140000000D+00 Coefficients=  1.0000000000D+00
 D 1 1.00
     Exponent=  6.4500000000D-01 Coefficients=  1.0000000000D+00
 F 1 1.00
     Exponent=  1.4280000000D+00 Coefficients=  1.0000000000D+00
 ****
 Centers:       3      7     12     16     25     27
 S 6 1.00
     Exponent=  1.3575349682D+04 Coefficients=  2.2245814352D-04
     Exponent=  2.0352333680D+03 Coefficients=  1.7232738252D-03
     Exponent=  4.6322562359D+02 Coefficients=  8.9255715314D-03
     Exponent=  1.3120019598D+02 Coefficients=  3.5727984502D-02
     Exponent=  4.2853015891D+01 Coefficients=  1.1076259931D-01
     Exponent=  1.5584185766D+01 Coefficients=  2.4295627626D-01
 S 2 1.00
     Exponent=  6.2067138508D+00 Coefficients=  4.1440263448D-01
     Exponent=  2.5764896527D+00 Coefficients=  2.3744968655D-01
 S 1 1.00
     Exponent=  5.7696339419D-01 Coefficients=  1.0000000000D+00
 S 1 1.00
     Exponent=  2.2972831358D-01 Coefficients=  1.0000000000D+00
 S 1 1.00
     Exponent=  9.5164440028D-02 Coefficients=  1.0000000000D+00
 P 4 1.00
     Exponent=  3.4697232244D+01 Coefficients=  5.3333657805D-03
     Exponent=  7.9582622826D+00 Coefficients=  3.5864109092D-02
     Exponent=  2.3780826883D+00 Coefficients=  1.4215873329D-01
     Exponent=  8.1433208183D-01 Coefficients=  3.4270471845D-01
 P 1 1.00
     Exponent=  2.8887547253D-01 Coefficients=  4.6445822433D-01
 P 1 1.00
     Exponent=  1.0056823671D-01 Coefficients=  2.4955789874D-01
 D 1 1.00
     Exponent=  1.0970000000D+00 Coefficients=  1.0000000000D+00
 D 1 1.00
     Exponent=  3.1800000000D-01 Coefficients=  1.0000000000D+00
 F 1 1.00
     Exponent=  7.6100000000D-01 Coefficients=  1.0000000000D+00
 ****
 Centers:      18     20     23
 S 8 1.00
     Exponent=  3.0078484637D+05 Coefficients=  2.2806273096D-04
     Exponent=  4.5088970557D+04 Coefficients=  1.7681788761D-03
     Exponent=  1.0262516317D+04 Coefficients=  9.1927083490D-03
     Exponent=  2.9052897293D+03 Coefficients=  3.7355495807D-02
     Exponent=  9.4611487137D+02 Coefficients=  1.2151108426D-01
     Exponent=  3.3987832894D+02 Coefficients=  2.8818881468D-01
     Exponent=  1.3194425588D+02 Coefficients=  4.1126612677D-01
     Exponent=  5.2111494077D+01 Coefficients=  2.1518583573D-01
 S 4 1.00
     Exponent=  3.2948839267D+02 Coefficients= -2.4745216477D-02
     Exponent=  1.0192332739D+02 Coefficients= -1.1683089050D-01
     Exponent=  1.6240462745D+01 Coefficients=  5.5293621136D-01
     Exponent=  6.8840675801D+00 Coefficients=  5.3601640182D-01
 S 2 1.00
     Exponent=  1.0470693782D+01 Coefficients= -2.2912708577D-01
     Exponent=  1.7360039648D+00 Coefficients=  7.1159319984D-01
 S 1 1.00
     Exponent=  7.2577288979D-01 Coefficients=  1.0000000000D+00
 S 1 1.00
     Exponent=  1.1595528203D-01 Coefficients=  1.0000000000D+00
 S 1 1.00
     Exponent=  4.1968227746D-02 Coefficients=  1.0000000000D+00
 P 6 1.00
     Exponent=  1.5853959970D+03 Coefficients=  2.3793960179D-03
     Exponent=  3.7538006499D+02 Coefficients=  1.9253154755D-02
     Exponent=  1.2031816501D+02 Coefficients=  9.0021836536D-02
     Exponent=  4.4788749031D+01 Coefficients=  2.5798172356D-01
     Exponent=  1.7829278584D+01 Coefficients=  4.1492649744D-01
     Exponent=  7.2247153786D+00 Coefficients=  2.4207474784D-01
 P 3 1.00
     Exponent=  2.8143219756D+01 Coefficients= -2.9041755152D-02
     Exponent=  3.8743241412D+00 Coefficients=  5.5312260343D-01
     Exponent=  1.5410752281D+00 Coefficients=  9.6771136842D-01
 P 1 1.00
     Exponent=  5.8285615250D-01 Coefficients=  1.0000000000D+00
 P 1 1.00
     Exponent=  1.3491500000D-01 Coefficients=  1.0000000000D+00
 D 4 1.00
     Exponent=  6.1996675034D+01 Coefficients=  1.1971972255D-02
     Exponent=  1.7873732552D+01 Coefficients=  7.3210135410D-02
     Exponent=  6.2744782934D+00 Coefficients=  2.3103094314D-01
     Exponent=  2.3552337175D+00 Coefficients=  3.9910706494D-01
 D 1 1.00
     Exponent=  8.5432239901D-01 Coefficients=  4.1391589765D-01
 D 1 1.00
     Exponent=  2.7869254413D-01 Coefficients=  2.1909269782D-01
 D 1 1.00
     Exponent=  9.1000000000D-02 Coefficients=  1.0000000000D+00
 F 1 1.00
     Exponent=  1.5980000000D+00 Coefficients=  1.0000000000D+00
 ****
 Ernie: Thresh=  0.10000D-02 Tol=  0.10000D-05 Strict=F.
   760 basis functions,  1323 primitive gaussians,   876 cartesian basis functions
   119 alpha electrons      105 beta electrons
       nuclear repulsion energy      3848.3709750985 Hartrees.
 IExCor= 4134 DFT=T Ex+Corr=M06L ExCW=0 ScaHFX=  0.000000
 ScaDFX=  1.000000  1.000000  1.000000  1.000000 ScalE2=  1.000000  1.000000
 IRadAn=      5 IRanWt=     -1 IRanGd=            0 ICorTp=0 IEmpDi=  4
 NAtoms=   28 NActive=   28 NUniq=   28 SFac= 1.00D+00 NAtFMM=   60 NAOKFM=F Big=F
 Integral buffers will be    131072 words long.
 Raffenetti 2 integral format.
 Two-electron integral symmetry is turned off.
 Leave Link  301 at Sat Jan 21 14:02:21 2023, MaxMem= 14763950080 cpu:               0.1 elap:               0.1
 (Enter /software/commercial/gaussian/g16/AVX2/g16/l302.exe)
 NPDir=0 NMtPBC=     1 NCelOv=     1 NCel=       1 NClECP=     1 NCelD=      1
         NCelK=      1 NCelE2=     1 NClLst=     1 CellRange=     0.0.
 One-electron integrals computed using PRISM.
 NBasis=   760 RedAO= T EigKep=  5.38D-04  NBF=   760
 NBsUse=   760 1.00D-06 EigRej= -1.00D+00 NBFU=   760
 Precomputing XC quadrature grid using
 IXCGrd= 4 IRadAn=           5 IRanWt=          -1 IRanGd=           0 AccXCQ= 0.00D+00.
 Generated NRdTot=       0 NPtTot=           0 NUsed=           0 NTot=          32
 NSgBfM=   868   868   868   868   868 MxSgAt=    28 MxSgA2=    28.
 Leave Link  302 at Sat Jan 21 14:02:22 2023, MaxMem= 14763950080 cpu:               1.8 elap:               1.2
 (Enter /software/commercial/gaussian/g16/AVX2/g16/l303.exe)
 DipDrv:  MaxL=1.
 Leave Link  303 at Sat Jan 21 14:02:23 2023, MaxMem= 14763950080 cpu:               0.2 elap:               0.2
 (Enter /software/commercial/gaussian/g16/AVX2/g16/l401.exe)
 ExpMin= 4.20D-02 ExpMax= 3.01D+05 ExpMxC= 2.91D+03 IAcc=3 IRadAn=         5 AccDes= 0.00D+00
 Harris functional with IExCor= 1009 and IRadAn=       5 diagonalized for initial guess.
 HarFok:  IExCor= 1009 AccDes= 0.00D+00 IRadAn=         5 IDoV= 1 UseB2=F ITyADJ=14
 ICtDFT=  3500011 ScaDFX=  1.000000  1.000000  1.000000  1.000000
 FoFCou: FMM=F IPFlag=           0 FMFlag=      100000 FMFlg1=           0
         NFxFlg=           0 DoJE=T BraDBF=F KetDBF=T FulRan=T
         wScrn=  0.000000 ICntrl=       500 IOpCl=  0 I1Cent=   200000004 NGrid=           0
         NMat0=    1 NMatS0=      1 NMatT0=    0 NMatD0=    1 NMtDS0=    0 NMtDT0=    0
 Symmetry not used in FoFCou.
 Harris En= -4999.94575821653    
 JPrj=0 DoOrth=F DoCkMO=F.
 Initial guess <Sx>= 0.0000 <Sy>= 0.0000 <Sz>= 7.0000 <S**2>=56.0000 S= 7.0000
 Leave Link  401 at Sat Jan 21 14:02:35 2023, MaxMem= 14763950080 cpu:              23.1 elap:              11.9
 (Enter /software/commercial/gaussian/g16/AVX2/g16/l502.exe)
 Two-electron integral symmetry not used.
 UHF open shell SCF:
 Using DIIS extrapolation, IDIIS=  1040.
 NGot= 14763950080 LenX= 14762403958 LenY= 14761635706
 Requested convergence on RMS density matrix=1.00D-08 within 150 cycles.
 Requested convergence on MAX density matrix=1.00D-06.
 Requested convergence on             energy=1.00D-06.
 No special actions if energy rises.
 Fock matrices will be formed incrementally for  20 cycles.

 Cycle   1  Pass 1  IDiag  1:
 FoFJK:  IHMeth= 1 ICntrl=     500 DoSepK=F KAlg= 0 I1Cent=           0 FoldK=F
 IRaf= 810000000 NMat=       1 IRICut=       1 DoRegI=T DoRafI=F ISym2E= 0 IDoP0=0 IntGTp=1.
 FoFCou: FMM=F IPFlag=           0 FMFlag=      100000 FMFlg1=           0
         NFxFlg=           0 DoJE=T BraDBF=F KetDBF=F FulRan=T
         wScrn=  0.000000 ICntrl=       500 IOpCl=  0 I1Cent=           0 NGrid=           0
         NMat0=    1 NMatS0=      1 NMatT0=    0 NMatD0=    1 NMtDS0=    0 NMtDT0=    0
 Symmetry not used in FoFCou.
 E= -5001.07288686481    
 DIIS: error= 6.33D-02 at cycle   1 NSaved=   1.
 NSaved= 1 IEnMin= 1 EnMin= -5001.07288686481     IErMin= 1 ErrMin= 6.33D-02
 ErrMax= 6.33D-02  0.00D+00 EMaxC= 1.00D-01 BMatC= 8.26D+00 BMatP= 8.26D+00
 IDIUse=3 WtCom= 3.67D-01 WtEn= 6.33D-01
 Coeff-Com:  0.100D+01
 Coeff-En:   0.100D+01
 Coeff:      0.100D+01
 Gap=     0.516 Goal=   None    Shift=    0.000
 Gap=     0.011 Goal=   None    Shift=    0.000
 GapD=    0.011 DampG=0.250 DampE=0.250 DampFc=0.1250 IDamp=-1.
 Damping current iteration by 1.25D-01
 RMSDP=3.63D-03 MaxDP=5.42D-01              OVMax= 8.87D-01

 Cycle   2  Pass 1  IDiag  1:
 RMSU=  4.53D-04    CP:  9.98D-01
 E= -5001.31062014656     Delta-E=       -0.237733281745 Rises=F Damp=T
 DIIS: error= 2.67D-02 at cycle   2 NSaved=   2.
 NSaved= 2 IEnMin= 2 EnMin= -5001.31062014656     IErMin= 2 ErrMin= 2.67D-02
 ErrMax= 2.67D-02  0.00D+00 EMaxC= 1.00D-01 BMatC= 1.97D+00 BMatP= 8.26D+00
 IDIUse=3 WtCom= 7.33D-01 WtEn= 2.67D-01
 Coeff-Com: -0.362D+00 0.136D+01
 Coeff-En:   0.254D+00 0.746D+00
 Coeff:     -0.198D+00 0.120D+01
 Gap=     0.164 Goal=   None    Shift=    0.000
 Gap=     0.022 Goal=   None    Shift=    0.000
 RMSDP=1.37D-03 MaxDP=9.09D-02 DE=-2.38D-01 OVMax= 9.86D-01

 Cycle   3  Pass 1  IDiag  1:
 RMSU=  1.37D-03    CP:  9.95D-01  9.89D-01
 E= -5001.14976776329     Delta-E=        0.160852383262 Rises=F Damp=F
 DIIS: error= 4.53D-02 at cycle   3 NSaved=   3.
 NSaved= 3 IEnMin= 2 EnMin= -5001.31062014656     IErMin= 2 ErrMin= 2.67D-02
 ErrMax= 4.53D-02  0.00D+00 EMaxC= 1.00D-01 BMatC= 5.01D+00 BMatP= 1.97D+00
 IDIUse=2 WtCom= 0.00D+00 WtEn= 1.00D+00
 Coeff-En:   0.000D+00 0.574D+00 0.426D+00
 Coeff:      0.000D+00 0.574D+00 0.426D+00
 Gap=     0.293 Goal=   None    Shift=    0.000
 Gap=     0.018 Goal=   None    Shift=    0.000
 RMSDP=2.54D-03 MaxDP=3.24D-01 DE= 1.61D-01 OVMax= 8.97D-01

 Cycle   4  Pass 1  IDiag  1:
 RMSU=  1.63D-03    CP:  9.89D-01  3.00D+00 -5.39D-02
 E= -4992.29643282594     Delta-E=        8.853334937350 Rises=F Damp=F
 DIIS: error= 2.97D-01 at cycle   4 NSaved=   4.
 NSaved= 4 IEnMin= 2 EnMin= -5001.31062014656     IErMin= 2 ErrMin= 2.67D-02
 ErrMax= 2.97D-01  0.00D+00 EMaxC= 1.00D-01 BMatC= 6.50D+01 BMatP= 1.97D+00
 IDIUse=2 WtCom= 0.00D+00 WtEn= 1.00D+00
 EnCoef did   100 forward-backward iterations
 Coeff-En:   0.320D+00 0.229D-01 0.513D+00 0.144D+00
 Coeff:      0.320D+00 0.229D-01 0.513D+00 0.144D+00
 Gap=     0.266 Goal=   None    Shift=    0.000
 Gap=     0.016 Goal=   None    Shift=    0.000
 RMSDP=2.13D-03 MaxDP=3.25D-01 DE= 8.85D+00 OVMax= 9.51D-01

 Cycle   5  Pass 1  IDiag  1:
 RMSU=  1.46D-03    CP:  9.95D-01  2.54D+00  2.10D-01  1.22D-01
 E= -4996.58230896277     Delta-E=       -4.285876136830 Rises=F Damp=F
 DIIS: error= 2.49D-01 at cycle   5 NSaved=   5.
 NSaved= 5 IEnMin= 2 EnMin= -5001.31062014656     IErMin= 2 ErrMin= 2.67D-02
 ErrMax= 2.49D-01  0.00D+00 EMaxC= 1.00D-01 BMatC= 3.33D+01 BMatP= 1.97D+00
 IDIUse=2 WtCom= 0.00D+00 WtEn= 1.00D+00
 EnCoef did   100 forward-backward iterations
 Coeff-En:   0.318D+00 0.969D-02 0.474D+00 0.126D+00 0.730D-01
 Coeff:      0.318D+00 0.969D-02 0.474D+00 0.126D+00 0.730D-01
 Gap=     0.227 Goal=   None    Shift=    0.000
 Gap=     0.078 Goal=   None    Shift=    0.000
 RMSDP=1.55D-03 MaxDP=3.75D-01 DE=-4.29D+00 OVMax= 9.68D-01

 Cycle   6  Pass 1  IDiag  1:
 RMSU=  8.44D-04    CP:  1.00D+00  1.55D+00  2.54D-01  2.95D-01  1.92D-01
 E= -5001.71050708839     Delta-E=       -5.128198125620 Rises=F Damp=F
 DIIS: error= 4.88D-02 at cycle   6 NSaved=   6.
 NSaved= 6 IEnMin= 6 EnMin= -5001.71050708839     IErMin= 2 ErrMin= 2.67D-02
 ErrMax= 4.88D-02  0.00D+00 EMaxC= 1.00D-01 BMatC= 2.27D+00 BMatP= 1.97D+00
 IDIUse=2 WtCom= 0.00D+00 WtEn= 1.00D+00
 EnCoef did     1 forward-backward iterations
 Coeff-En:   0.000D+00 0.000D+00 0.304D+00 0.000D+00 0.627D-01 0.633D+00
 Coeff:      0.000D+00 0.000D+00 0.304D+00 0.000D+00 0.627D-01 0.633D+00
 Gap=     0.204 Goal=   None    Shift=    0.000
 Gap=     0.017 Goal=   None    Shift=    0.000
 RMSDP=1.13D-03 MaxDP=2.67D-01 DE=-5.13D+00 OVMax= 9.89D-01

 Cycle   7  Pass 1  IDiag  1:
 RMSU=  7.95D-04    CP:  9.97D-01  1.17D+00  3.92D-01  1.48D-01  4.29D-01
                    CP:  2.61D-01
 E= -5001.22460207207     Delta-E=        0.485905016327 Rises=F Damp=F
 DIIS: error= 5.64D-02 at cycle   7 NSaved=   7.
 NSaved= 7 IEnMin= 6 EnMin= -5001.71050708839     IErMin= 2 ErrMin= 2.67D-02
 ErrMax= 5.64D-02  0.00D+00 EMaxC= 1.00D-01 BMatC= 4.84D+00 BMatP= 1.97D+00
 IDIUse=2 WtCom= 0.00D+00 WtEn= 1.00D+00
 EnCoef did     6 forward-backward iterations
 Coeff-En:   0.000D+00 0.000D+00 0.104D+00 0.000D+00 0.000D+00 0.592D+00
 Coeff-En:   0.304D+00
 Coeff:      0.000D+00 0.000D+00 0.104D+00 0.000D+00 0.000D+00 0.592D+00
 Coeff:      0.304D+00
 Gap=     0.163 Goal=   None    Shift=    0.000
 Gap=     0.000 Goal=   None    Shift=    0.000
 RMSDP=9.38D-04 MaxDP=2.67D-01 DE= 4.86D-01 OVMax= 9.55D-01

 Cycle   8  Pass 1  IDiag  1:
 RMSU=  3.97D-04    CP:  9.99D-01  1.14D+00  5.00D-01  1.40D-01  1.35D-01
                    CP:  5.12D-01  1.38D-01
 E= -5001.94718071908     Delta-E=       -0.722578647010 Rises=F Damp=F
 DIIS: error= 1.75D-02 at cycle   8 NSaved=   8.
 NSaved= 8 IEnMin= 8 EnMin= -5001.94718071908     IErMin= 8 ErrMin= 1.75D-02
 ErrMax= 1.75D-02  0.00D+00 EMaxC= 1.00D-01 BMatC= 6.87D-01 BMatP= 1.97D+00
 IDIUse=3 WtCom= 8.25D-01 WtEn= 1.75D-01
 EnCoef did   100 forward-backward iterations
 Coeff-Com: -0.133D+00 0.205D+00 0.550D-01-0.219D-01 0.135D-02 0.362D+00
 Coeff-Com:  0.180D+00 0.351D+00
 Coeff-En:   0.000D+00 0.000D+00 0.000D+00 0.000D+00 0.311D-02 0.342D+00
 Coeff-En:   0.172D+00 0.483D+00
 Coeff:     -0.110D+00 0.169D+00 0.454D-01-0.181D-01 0.166D-02 0.359D+00
 Coeff:      0.179D+00 0.374D+00
 Gap=     0.210 Goal=   None    Shift=    0.000
 Gap=     0.010 Goal=   None    Shift=    0.000
 RMSDP=7.32D-04 MaxDP=1.62D-01 DE=-7.23D-01 OVMax= 8.00D-01

 Cycle   9  Pass 1  IDiag  1:
 RMSU=  5.12D-04    CP:  9.99D-01  1.37D+00  3.69D-01  2.25D-01  2.07D-01
                    CP:  7.01D-01  1.91D-01 -4.77D-02
 E= -5001.76582200478     Delta-E=        0.181358714299 Rises=F Damp=F
 DIIS: error= 3.21D-02 at cycle   9 NSaved=   9.
 NSaved= 9 IEnMin= 8 EnMin= -5001.94718071908     IErMin= 8 ErrMin= 1.75D-02
 ErrMax= 3.21D-02  0.00D+00 EMaxC= 1.00D-01 BMatC= 1.65D+00 BMatP= 6.87D-01
 IDIUse=2 WtCom= 0.00D+00 WtEn= 1.00D+00
 EnCoef did   100 forward-backward iterations
 Coeff-En:   0.000D+00 0.000D+00 0.000D+00 0.000D+00 0.234D-02 0.200D+00
 Coeff-En:   0.131D+00 0.474D+00 0.192D+00
 Coeff:      0.000D+00 0.000D+00 0.000D+00 0.000D+00 0.234D-02 0.200D+00
 Coeff:      0.131D+00 0.474D+00 0.192D+00
 Gap=     0.209 Goal=   None    Shift=    0.000
 Gap=     0.015 Goal=   None    Shift=    0.000
 RMSDP=8.86D-04 MaxDP=2.72D-01 DE= 1.81D-01 OVMax= 9.85D-01

 Cycle  10  Pass 1  IDiag  1:
 RMSU=  3.71D-04    CP:  9.99D-01  1.70D+00  3.75D-01  1.99D-01  4.46D-01
                    CP:  4.84D-01  7.14D-01  4.97D-02 -5.97D-02
 E= -5001.58821354986     Delta-E=        0.177608454922 Rises=F Damp=F
 DIIS: error= 4.98D-02 at cycle  10 NSaved=  10.
 NSaved=10 IEnMin= 8 EnMin= -5001.94718071908     IErMin= 8 ErrMin= 1.75D-02
 ErrMax= 4.98D-02  0.00D+00 EMaxC= 1.00D-01 BMatC= 2.93D+00 BMatP= 6.87D-01
 IDIUse=2 WtCom= 0.00D+00 WtEn= 1.00D+00
 EnCoef did     6 forward-backward iterations
 Coeff-En:   0.000D+00 0.000D+00 0.000D+00 0.000D+00 0.000D+00 0.110D+00
 Coeff-En:   0.000D+00 0.478D+00 0.214D+00 0.198D+00
 Coeff:      0.000D+00 0.000D+00 0.000D+00 0.000D+00 0.000D+00 0.110D+00
 Coeff:      0.000D+00 0.478D+00 0.214D+00 0.198D+00
 Gap=     0.186 Goal=   None    Shift=    0.000
 Gap=     0.004 Goal=   None    Shift=    0.000
 RMSDP=8.17D-04 MaxDP=2.72D-01 DE= 1.78D-01 OVMax= 9.55D-01

 Cycle  11  Pass 1  IDiag  1:
 RMSU=  3.08D-04    CP:  1.00D+00  1.34D+00  3.15D-01  2.42D-01  2.15D-01
                    CP:  7.10D-01  2.60D-01  8.87D-01 -1.84D-01 -7.15D-03
 E= -5001.89229499816     Delta-E=       -0.304081448305 Rises=F Damp=F
 DIIS: error= 1.92D-02 at cycle  11 NSaved=  11.
 NSaved=11 IEnMin= 8 EnMin= -5001.94718071908     IErMin= 8 ErrMin= 1.75D-02
 ErrMax= 1.92D-02  0.00D+00 EMaxC= 1.00D-01 BMatC= 9.33D-01 BMatP= 6.87D-01
 IDIUse=2 WtCom= 0.00D+00 WtEn= 1.00D+00
 EnCoef did     7 forward-backward iterations
 Coeff-En:   0.000D+00 0.000D+00 0.000D+00 0.000D+00 0.000D+00 0.000D+00
 Coeff-En:   0.000D+00 0.231D+00 0.309D+00 0.153D+00 0.307D+00
 Coeff:      0.000D+00 0.000D+00 0.000D+00 0.000D+00 0.000D+00 0.000D+00
 Coeff:      0.000D+00 0.231D+00 0.309D+00 0.153D+00 0.307D+00
 Gap=     0.183 Goal=   None    Shift=    0.000
 Gap=     0.013 Goal=   None    Shift=    0.000
 RMSDP=6.48D-04 MaxDP=1.27D-01 DE=-3.04D-01 OVMax= 7.69D-01

 Cycle  12  Pass 1  IDiag  1:
 RMSU=  3.28D-04    CP:  1.00D+00  1.32D+00  4.30D-01  1.51D-01  2.95D-01
                    CP:  4.51D-01  3.65D-01  5.75D-01  1.54D-01  4.77D-01
                    CP: -1.21D-01
 E= -5001.96218504414     Delta-E=       -0.069890045976 Rises=F Damp=F
 DIIS: error= 1.99D-02 at cycle  12 NSaved=  12.
 NSaved=12 IEnMin=12 EnMin= -5001.96218504414     IErMin= 8 ErrMin= 1.75D-02
 ErrMax= 1.99D-02  0.00D+00 EMaxC= 1.00D-01 BMatC= 5.58D-01 BMatP= 6.87D-01
 IDIUse=3 WtCom= 8.25D-01 WtEn= 1.75D-01
 EnCoef did   100 forward-backward iterations
 Coeff-Com: -0.467D-01 0.572D-01-0.406D-01-0.590D-02-0.305D-02 0.415D-01
 Coeff-Com: -0.221D-02 0.283D+00 0.203D+00 0.188D-01 0.192D+00 0.303D+00
 Coeff-En:   0.000D+00 0.000D+00 0.000D+00 0.000D+00 0.000D+00 0.545D-02
 Coeff-En:   0.000D+00 0.408D-01 0.244D+00 0.000D+00 0.352D+00 0.358D+00
 Coeff:     -0.385D-01 0.472D-01-0.335D-01-0.487D-02-0.251D-02 0.352D-01
 Coeff:     -0.182D-02 0.241D+00 0.210D+00 0.155D-01 0.220D+00 0.313D+00
 Gap=     0.183 Goal=   None    Shift=    0.000
 Gap=     0.010 Goal=   None    Shift=    0.000
 RMSDP=5.03D-04 MaxDP=6.69D-02 DE=-6.99D-02 OVMax= 6.22D-01

 Cycle  13  Pass 1  IDiag  1:
 RMSU=  1.63D-04    CP:  1.00D+00  1.29D+00  3.60D-01  1.95D-01  1.92D-01
                    CP:  7.26D-01  1.47D-01  5.43D-01  2.98D-01 -4.63D-03
                    CP: -9.06D-03  2.12D-01
 E= -5002.05163561510     Delta-E=       -0.089450570969 Rises=F Damp=F
 DIIS: error= 5.41D-03 at cycle  13 NSaved=  13.
 NSaved=13 IEnMin=13 EnMin= -5002.05163561510     IErMin=13 ErrMin= 5.41D-03
 ErrMax= 5.41D-03  0.00D+00 EMaxC= 1.00D-01 BMatC= 7.70D-02 BMatP= 5.58D-01
 IDIUse=3 WtCom= 9.46D-01 WtEn= 5.41D-02
 EnCoef did     4 forward-backward iterations
 Coeff-Com: -0.152D-01 0.200D-01-0.283D-01 0.201D-03 0.127D-02-0.146D-01
 Coeff-Com: -0.366D-02 0.963D-01-0.198D-01 0.584D-03 0.775D-01 0.225D+00
 Coeff-Com:  0.661D+00
 Coeff-En:   0.000D+00 0.000D+00 0.000D+00 0.000D+00 0.000D+00 0.000D+00
 Coeff-En:   0.000D+00 0.000D+00 0.000D+00 0.000D+00 0.107D+00 0.231D+00
 Coeff-En:   0.662D+00
 Coeff:     -0.144D-01 0.189D-01-0.268D-01 0.191D-03 0.120D-02-0.138D-01
 Coeff:     -0.346D-02 0.911D-01-0.187D-01 0.553D-03 0.791D-01 0.225D+00
 Coeff:      0.661D+00
 Gap=     0.181 Goal=   None    Shift=    0.000
 Gap=     0.013 Goal=   None    Shift=    0.000
 RMSDP=2.06D-04 MaxDP=3.46D-02 DE=-8.95D-02 OVMax= 2.50D-01

 Cycle  14  Pass 1  IDiag  1:
 RMSU=  6.02D-05    CP:  1.00D+00  1.28D+00  3.71D-01  1.82D-01  2.21D-01
                    CP:  6.27D-01  1.99D-01  7.47D-01  1.64D-01  1.69D-01
                    CP:  6.71D-02  5.23D-01  7.94D-01
 E= -5002.06447035129     Delta-E=       -0.012834736184 Rises=F Damp=F
 DIIS: error= 1.73D-03 at cycle  14 NSaved=  14.
 NSaved=14 IEnMin=14 EnMin= -5002.06447035129     IErMin=14 ErrMin= 1.73D-03
 ErrMax= 1.73D-03  0.00D+00 EMaxC= 1.00D-01 BMatC= 9.54D-03 BMatP= 7.70D-02
 IDIUse=3 WtCom= 9.83D-01 WtEn= 1.73D-02
 Coeff-Com: -0.101D-01 0.133D-01-0.113D-02-0.584D-04-0.118D-04-0.847D-02
 Coeff-Com:  0.117D-02 0.152D-03-0.830D-02 0.155D-02 0.153D-01-0.467D-02
 Coeff-Com:  0.306D+00 0.696D+00
 Coeff-En:   0.000D+00 0.000D+00 0.000D+00 0.000D+00 0.000D+00 0.000D+00
 Coeff-En:   0.000D+00 0.000D+00 0.000D+00 0.000D+00 0.000D+00 0.000D+00
 Coeff-En:   0.238D+00 0.762D+00
 Coeff:     -0.995D-02 0.130D-01-0.111D-02-0.574D-04-0.116D-04-0.832D-02
 Coeff:      0.115D-02 0.150D-03-0.815D-02 0.152D-02 0.150D-01-0.459D-02
 Coeff:      0.305D+00 0.697D+00
 Gap=     0.180 Goal=   None    Shift=    0.000
 Gap=     0.013 Goal=   None    Shift=    0.000
 RMSDP=6.00D-05 MaxDP=7.61D-03 DE=-1.28D-02 OVMax= 6.67D-02

 Cycle  15  Pass 1  IDiag  1:
 RMSU=  2.97D-05    CP:  1.00D+00  1.28D+00  3.64D-01  1.85D-01  2.14D-01
                    CP:  6.57D-01  1.88D-01  6.98D-01  1.86D-01  1.29D-01
                    CP:  7.85D-02  4.56D-01  9.22D-01  8.50D-01
 E= -5002.06612295615     Delta-E=       -0.001652604866 Rises=F Damp=F
 DIIS: error= 7.14D-04 at cycle  15 NSaved=  15.
 NSaved=15 IEnMin=15 EnMin= -5002.06612295615     IErMin=15 ErrMin= 7.14D-04
 ErrMax= 7.14D-04  0.00D+00 EMaxC= 1.00D-01 BMatC= 1.47D-03 BMatP= 9.54D-03
 IDIUse=3 WtCom= 9.93D-01 WtEn= 7.14D-03
 EnCoef did    11 forward-backward iterations
 Coeff-Com: -0.728D-02 0.878D-02 0.521D-03-0.387D-05-0.149D-03-0.141D-02
 Coeff-Com:  0.209D-02-0.277D-02-0.606D-03-0.500D-03 0.355D-03-0.289D-01
 Coeff-Com:  0.136D+00 0.529D+00 0.365D+00
 Coeff-En:   0.000D+00 0.000D+00 0.000D+00 0.000D+00 0.000D+00 0.000D+00
 Coeff-En:   0.000D+00 0.000D+00 0.000D+00 0.000D+00 0.000D+00 0.000D+00
 Coeff-En:   0.330D-01 0.154D+00 0.813D+00
 Coeff:     -0.722D-02 0.872D-02 0.517D-03-0.384D-05-0.148D-03-0.140D-02
 Coeff:      0.208D-02-0.275D-02-0.602D-03-0.497D-03 0.352D-03-0.287D-01
 Coeff:      0.136D+00 0.526D+00 0.368D+00
 Gap=     0.179 Goal=   None    Shift=    0.000
 Gap=     0.013 Goal=   None    Shift=    0.000
 RMSDP=2.20D-05 MaxDP=2.13D-03 DE=-1.65D-03 OVMax= 1.87D-02

 Cycle  16  Pass 1  IDiag  1:
 RMSU=  1.72D-05    CP:  1.00D+00  1.29D+00  3.63D-01  1.85D-01  2.15D-01
                    CP:  6.61D-01  1.89D-01  6.79D-01  1.98D-01  1.27D-01
                    CP:  7.75D-02  4.60D-01  9.53D-01  9.32D-01  8.43D-01
 E= -5002.06633231804     Delta-E=       -0.000209361890 Rises=F Damp=F
 DIIS: error= 4.23D-04 at cycle  16 NSaved=  16.
 NSaved=16 IEnMin=16 EnMin= -5002.06633231804     IErMin=16 ErrMin= 4.23D-04
 ErrMax= 4.23D-04  0.00D+00 EMaxC= 1.00D-01 BMatC= 4.07D-04 BMatP= 1.47D-03
 IDIUse=3 WtCom= 9.96D-01 WtEn= 4.23D-03
 EnCoef did     1 forward-backward iterations
 Coeff-Com: -0.349D-02 0.404D-02 0.545D-05-0.130D-03-0.847D-04 0.104D-02
 Coeff-Com: -0.800D-03 0.405D-02 0.144D-02 0.202D-02 0.497D-02-0.158D-01
 Coeff-Com:  0.108D-01 0.174D+00 0.221D+00 0.597D+00
 Coeff-En:   0.000D+00 0.000D+00 0.000D+00 0.000D+00 0.000D+00 0.000D+00
 Coeff-En:   0.000D+00 0.000D+00 0.000D+00 0.000D+00 0.000D+00 0.000D+00
 Coeff-En:   0.000D+00 0.218D-03 0.186D+00 0.814D+00
 Coeff:     -0.348D-02 0.402D-02 0.542D-05-0.129D-03-0.843D-04 0.104D-02
 Coeff:     -0.797D-03 0.403D-02 0.143D-02 0.201D-02 0.495D-02-0.157D-01
 Coeff:      0.108D-01 0.173D+00 0.221D+00 0.598D+00
 Gap=     0.179 Goal=   None    Shift=    0.000
 Gap=     0.013 Goal=   None    Shift=    0.000
 RMSDP=2.37D-05 MaxDP=4.88D-03 DE=-2.09D-04 OVMax= 2.92D-02

 Cycle  17  Pass 1  IDiag  1:
 RMSU=  1.08D-05    CP:  1.00D+00  1.29D+00  3.61D-01  1.86D-01  2.14D-01
                    CP:  6.66D-01  1.92D-01  6.85D-01  1.77D-01  1.31D-01
                    CP:  1.15D-01  4.51D-01  9.67D-01  1.01D+00  1.16D+00
                    CP:  1.37D+00
 E= -5002.06641073784     Delta-E=       -0.000078419796 Rises=F Damp=F
 DIIS: error= 2.34D-04 at cycle  17 NSaved=  17.
 NSaved=17 IEnMin=17 EnMin= -5002.06641073784     IErMin=17 ErrMin= 2.34D-04
 ErrMax= 2.34D-04  0.00D+00 EMaxC= 1.00D-01 BMatC= 1.56D-04 BMatP= 4.07D-04
 IDIUse=3 WtCom= 9.98D-01 WtEn= 2.34D-03
 Coeff-Com: -0.182D-02 0.214D-02-0.499D-03-0.270D-04 0.621D-04 0.380D-03
 Coeff-Com: -0.296D-03 0.281D-02 0.123D-02 0.188D-03 0.222D-03-0.334D-02
 Coeff-Com: -0.643D-02 0.388D-01 0.945D-01 0.417D+00 0.455D+00
 Coeff-En:   0.000D+00 0.000D+00 0.000D+00 0.000D+00 0.000D+00 0.000D+00
 Coeff-En:   0.000D+00 0.000D+00 0.000D+00 0.000D+00 0.000D+00 0.000D+00
 Coeff-En:   0.000D+00 0.000D+00 0.000D+00 0.266D+00 0.734D+00
 Coeff:     -0.181D-02 0.213D-02-0.498D-03-0.270D-04 0.620D-04 0.379D-03
 Coeff:     -0.296D-03 0.280D-02 0.123D-02 0.187D-03 0.221D-03-0.333D-02
 Coeff:     -0.642D-02 0.387D-01 0.943D-01 0.416D+00 0.456D+00
 Gap=     0.179 Goal=   None    Shift=    0.000
 Gap=     0.013 Goal=   None    Shift=    0.000
 RMSDP=1.18D-05 MaxDP=1.25D-03 DE=-7.84D-05 OVMax= 1.43D-02

 Cycle  18  Pass 1  IDiag  1:
 RMSU=  3.73D-06    CP:  1.00D+00  1.29D+00  3.61D-01  1.86D-01  2.16D-01
                    CP:  6.66D-01  1.95D-01  6.78D-01  1.77D-01  1.34D-01
                    CP:  1.23D-01  4.58D-01  9.82D-01  1.06D+00  1.37D+00
                    CP:  1.71D+00  1.25D+00
 E= -5002.06643974161     Delta-E=       -0.000029003773 Rises=F Damp=F
 DIIS: error= 1.86D-04 at cycle  18 NSaved=  18.
 NSaved=18 IEnMin=18 EnMin= -5002.06643974161     IErMin=18 ErrMin= 1.86D-04
 ErrMax= 1.86D-04  0.00D+00 EMaxC= 1.00D-01 BMatC= 9.05D-05 BMatP= 1.56D-04
 IDIUse=3 WtCom= 9.98D-01 WtEn= 1.86D-03
 Coeff-Com: -0.135D-02 0.172D-02-0.738D-03 0.186D-04 0.208D-04 0.315D-03
 Coeff-Com:  0.191D-03 0.204D-02 0.747D-03-0.381D-03-0.307D-02 0.159D-03
 Coeff-Com:  0.461D-02 0.122D-01 0.329D-01 0.200D+00 0.135D+00 0.615D+00
 Coeff-En:   0.000D+00 0.000D+00 0.000D+00 0.000D+00 0.000D+00 0.000D+00
 Coeff-En:   0.000D+00 0.000D+00 0.000D+00 0.000D+00 0.000D+00 0.000D+00
 Coeff-En:   0.000D+00 0.000D+00 0.000D+00 0.568D-01 0.000D+00 0.943D+00
 Coeff:     -0.134D-02 0.172D-02-0.737D-03 0.185D-04 0.208D-04 0.314D-03
 Coeff:      0.191D-03 0.204D-02 0.746D-03-0.380D-03-0.306D-02 0.158D-03
 Coeff:      0.460D-02 0.121D-01 0.328D-01 0.200D+00 0.135D+00 0.616D+00
 Gap=     0.179 Goal=   None    Shift=    0.000
 Gap=     0.013 Goal=   None    Shift=    0.000
 RMSDP=1.18D-05 MaxDP=1.36D-03 DE=-2.90D-05 OVMax= 1.48D-02

 Cycle  19  Pass 1  IDiag  1:
 RMSU=  2.32D-06    CP:  1.00D+00  1.29D+00  3.60D-01  1.86D-01  2.16D-01
                    CP:  6.69D-01  1.97D-01  6.68D-01  1.77D-01  1.34D-01
                    CP:  1.32D-01  4.58D-01  1.00D+00  1.09D+00  1.55D+00
                    CP:  2.06D+00  1.63D+00  1.56D+00
 E= -5002.06646209695     Delta-E=       -0.000022355336 Rises=F Damp=F
 DIIS: error= 1.32D-04 at cycle  19 NSaved=  19.
 NSaved=19 IEnMin=19 EnMin= -5002.06646209695     IErMin=19 ErrMin= 1.32D-04
 ErrMax= 1.32D-04  0.00D+00 EMaxC= 1.00D-01 BMatC= 4.81D-05 BMatP= 9.05D-05
 IDIUse=3 WtCom= 9.99D-01 WtEn= 1.32D-03
 Coeff-Com: -0.843D-03 0.120D-02-0.176D-03 0.406D-04-0.405D-04-0.334D-03
 Coeff-Com:  0.312D-03-0.713D-03 0.341D-03-0.311D-03-0.345D-02 0.149D-02
 Coeff-Com:  0.182D-01 0.113D-01-0.232D-01-0.105D+00-0.646D+00 0.557D+00
 Coeff-Com:  0.119D+01
 Coeff-En:   0.000D+00 0.000D+00 0.000D+00 0.000D+00 0.000D+00 0.000D+00
 Coeff-En:   0.000D+00 0.000D+00 0.000D+00 0.000D+00 0.000D+00 0.000D+00
 Coeff-En:   0.000D+00 0.000D+00 0.000D+00 0.000D+00 0.000D+00 0.000D+00
 Coeff-En:   0.100D+01
 Coeff:     -0.842D-03 0.120D-02-0.176D-03 0.406D-04-0.405D-04-0.334D-03
 Coeff:      0.312D-03-0.712D-03 0.340D-03-0.311D-03-0.344D-02 0.149D-02
 Coeff:      0.182D-01 0.113D-01-0.232D-01-0.105D+00-0.645D+00 0.556D+00
 Coeff:      0.119D+01
 Gap=     0.179 Goal=   None    Shift=    0.000
 Gap=     0.013 Goal=   None    Shift=    0.000
 RMSDP=2.97D-05 MaxDP=3.37D-03 DE=-2.24D-05 OVMax= 3.77D-02

 Cycle  20  Pass 1  IDiag  1:
 RMSU=  3.64D-06    CP:  1.00D+00  1.30D+00  3.59D-01  1.86D-01  2.17D-01
                    CP:  6.75D-01  2.03D-01  6.47D-01  1.72D-01  1.35D-01
                    CP:  1.60D-01  4.58D-01  1.04D+00  1.18D+00  2.02D+00
                    CP:  2.92D+00  2.61D+00  3.00D+00  2.53D+00
 E= -5002.06649301188     Delta-E=       -0.000030914935 Rises=F Damp=F
 DIIS: error= 1.24D-04 at cycle  20 NSaved=  20.
 NSaved=20 IEnMin=20 EnMin= -5002.06649301188     IErMin=20 ErrMin= 1.24D-04
 ErrMax= 1.24D-04  0.00D+00 EMaxC= 1.00D-01 BMatC= 5.20D-05 BMatP= 4.81D-05
 IDIUse=3 WtCom= 9.99D-01 WtEn= 1.24D-03
 Coeff-Com: -0.936D-03 0.109D-02 0.251D-04 0.466D-04-0.208D-04-0.789D-03
 Coeff-Com:  0.667D-03-0.486D-03 0.368D-03-0.488D-03-0.148D-02-0.113D-02
 Coeff-Com:  0.171D-01 0.560D-01 0.818D-02-0.152D+00-0.100D+01-0.236D+00
 Coeff-Com:  0.136D+01 0.952D+00
 Coeff-En:   0.000D+00 0.000D+00 0.000D+00 0.000D+00 0.000D+00 0.000D+00
 Coeff-En:   0.000D+00 0.000D+00 0.000D+00 0.000D+00 0.000D+00 0.000D+00
 Coeff-En:   0.000D+00 0.000D+00 0.000D+00 0.000D+00 0.000D+00 0.000D+00
 Coeff-En:   0.000D+00 0.100D+01
 Coeff:     -0.935D-03 0.109D-02 0.251D-04 0.465D-04-0.208D-04-0.788D-03
 Coeff:      0.666D-03-0.486D-03 0.368D-03-0.487D-03-0.148D-02-0.113D-02
 Coeff:      0.171D-01 0.559D-01 0.817D-02-0.152D+00-0.100D+01-0.236D+00
 Coeff:      0.136D+01 0.952D+00
 Gap=     0.179 Goal=   None    Shift=    0.000
 Gap=     0.013 Goal=   None    Shift=    0.000
 RMSDP=3.87D-05 MaxDP=4.84D-03 DE=-3.09D-05 OVMax= 4.91D-02

 Cycle  21  Pass 1  IDiag  1:
 Restarting incremental Fock formation.
 E= -5002.06652488181     Delta-E=       -0.000031869929 Rises=F Damp=F
 DIIS: error= 1.74D-04 at cycle  21 NSaved=  20.
 NSaved=20 IEnMin=20 EnMin= -5002.06652488181     IErMin=19 ErrMin= 1.24D-04
 ErrMax= 1.74D-04  0.00D+00 EMaxC= 1.00D-01 BMatC= 6.34D-05 BMatP= 4.81D-05
 IDIUse=3 WtCom= 9.99D-01 WtEn= 1.24D-03
 Coeff-Com: -0.111D-02 0.124D-02 0.143D-03-0.517D-04-0.688D-03 0.354D-03
 Coeff-Com:  0.103D-02 0.526D-03 0.112D-03 0.141D-02-0.224D-02-0.356D-02
 Coeff-Com:  0.740D-01 0.617D-01 0.876D-02-0.585D+00-0.555D+00 0.527D+00
 Coeff-Com:  0.834D+00 0.637D+00
 Coeff-En:   0.000D+00 0.000D+00 0.000D+00 0.000D+00 0.000D+00 0.000D+00
 Coeff-En:   0.000D+00 0.000D+00 0.000D+00 0.000D+00 0.000D+00 0.000D+00
 Coeff-En:   0.000D+00 0.000D+00 0.000D+00 0.000D+00 0.000D+00 0.000D+00
 Coeff-En:   0.000D+00 0.100D+01
 Coeff:     -0.110D-02 0.124D-02 0.143D-03-0.517D-04-0.687D-03 0.353D-03
 Coeff:      0.103D-02 0.526D-03 0.112D-03 0.141D-02-0.224D-02-0.356D-02
 Coeff:      0.739D-01 0.616D-01 0.875D-02-0.585D+00-0.554D+00 0.527D+00
 Coeff:      0.833D+00 0.637D+00
 Gap=     0.179 Goal=   None    Shift=    0.000
 Gap=     0.013 Goal=   None    Shift=    0.000
 RMSDP=2.25D-05 MaxDP=2.86D-03 DE=-3.19D-05 OVMax= 2.85D-02

 Cycle  22  Pass 1  IDiag  1:
 RMSU=  2.25D-05    CP:  1.00D+00
 E= -5002.06654183788     Delta-E=       -0.000016956063 Rises=F Damp=F
 DIIS: error= 1.79D-04 at cycle  22 NSaved=  20.
 NSaved=20 IEnMin=20 EnMin= -5002.06654183788     IErMin=18 ErrMin= 1.24D-04
 ErrMax= 1.79D-04  0.00D+00 EMaxC= 1.00D-01 BMatC= 5.89D-05 BMatP= 4.81D-05
 IDIUse=3 WtCom= 9.99D-01 WtEn= 1.24D-03
 Coeff-Com: -0.121D-02 0.136D-02-0.590D-04-0.428D-03 0.341D-03 0.174D-02
 Coeff-Com:  0.496D-03 0.109D-03 0.126D-02-0.194D-02-0.127D-01 0.700D-01
 Coeff-Com:  0.745D-01 0.704D-01-0.201D+00-0.363D+00-0.356D-01 0.356D+00
 Coeff-Com:  0.231D+00 0.810D+00
 Coeff-En:   0.000D+00 0.000D+00 0.000D+00 0.000D+00 0.000D+00 0.000D+00
 Coeff-En:   0.000D+00 0.000D+00 0.000D+00 0.000D+00 0.000D+00 0.000D+00
 Coeff-En:   0.000D+00 0.000D+00 0.000D+00 0.000D+00 0.000D+00 0.000D+00
 Coeff-En:   0.000D+00 0.100D+01
 Coeff:     -0.120D-02 0.136D-02-0.590D-04-0.427D-03 0.340D-03 0.174D-02
 Coeff:      0.495D-03 0.109D-03 0.126D-02-0.193D-02-0.127D-01 0.699D-01
 Coeff:      0.744D-01 0.704D-01-0.201D+00-0.363D+00-0.355D-01 0.355D+00
 Coeff:      0.231D+00 0.810D+00
 Gap=     0.179 Goal=   None    Shift=    0.000
 Gap=     0.013 Goal=   None    Shift=    0.000
 RMSDP=1.68D-05 MaxDP=2.19D-03 DE=-1.70D-05 OVMax= 2.12D-02

 Cycle  23  Pass 1  IDiag  1:
 RMSU=  2.05D-06    CP:  1.00D+00  1.74D+00
 E= -5002.06655152008     Delta-E=       -0.000009682204 Rises=F Damp=F
 DIIS: error= 1.72D-04 at cycle  23 NSaved=  20.
 NSaved=20 IEnMin=20 EnMin= -5002.06655152008     IErMin=17 ErrMin= 1.24D-04
 ErrMax= 1.72D-04  0.00D+00 EMaxC= 1.00D-01 BMatC= 5.76D-05 BMatP= 4.81D-05
 IDIUse=3 WtCom= 9.99D-01 WtEn= 1.24D-03
 Coeff-Com: -0.216D-03 0.189D-03-0.424D-03-0.332D-03-0.110D-02 0.625D-03
 Coeff-Com:  0.976D-03 0.485D-03 0.811D-04-0.180D-01 0.251D-01 0.287D-01
 Coeff-Com: -0.740D-02-0.113D+00 0.443D-01-0.550D-01-0.274D-01-0.488D+00
 Coeff-Com:  0.456D+00 0.115D+01
 Coeff-En:   0.000D+00 0.000D+00 0.000D+00 0.000D+00 0.000D+00 0.000D+00
 Coeff-En:   0.000D+00 0.000D+00 0.000D+00 0.000D+00 0.000D+00 0.000D+00
 Coeff-En:   0.000D+00 0.000D+00 0.000D+00 0.000D+00 0.000D+00 0.000D+00
 Coeff-En:   0.000D+00 0.100D+01
 Coeff:     -0.215D-03 0.188D-03-0.424D-03-0.332D-03-0.109D-02 0.624D-03
 Coeff:      0.975D-03 0.485D-03 0.810D-04-0.180D-01 0.251D-01 0.287D-01
 Coeff:     -0.739D-02-0.113D+00 0.442D-01-0.550D-01-0.273D-01-0.487D+00
 Coeff:      0.456D+00 0.115D+01
 Gap=     0.179 Goal=   None    Shift=    0.000
 Gap=     0.013 Goal=   None    Shift=    0.000
 RMSDP=3.04D-05 MaxDP=3.91D-03 DE=-9.68D-06 OVMax= 3.85D-02

 Cycle  24  Pass 1  IDiag  1:
 RMSU=  4.24D-06    CP:  1.00D+00  3.00D+00  1.93D+00
 E= -5002.06656700068     Delta-E=       -0.000015480597 Rises=F Damp=F
 DIIS: error= 1.58D-04 at cycle  24 NSaved=  20.
 NSaved=20 IEnMin=20 EnMin= -5002.06656700068     IErMin=16 ErrMin= 1.24D-04
 ErrMax= 1.58D-04  0.00D+00 EMaxC= 1.00D-01 BMatC= 4.08D-05 BMatP= 4.81D-05
 IDIUse=3 WtCom= 9.99D-01 WtEn= 1.24D-03
 Coeff-Com: -0.114D-04-0.276D-03-0.119D-03-0.149D-02 0.316D-03 0.564D-03
 Coeff-Com: -0.856D-03-0.498D-04-0.607D-02 0.315D-01 0.297D-01 0.160D-01
 Coeff-Com: -0.258D-01 0.171D+00-0.802D-01-0.152D+00-0.721D+00-0.163D+00
 Coeff-Com:  0.126D+01 0.641D+00
 Coeff-En:   0.000D+00 0.000D+00 0.000D+00 0.000D+00 0.000D+00 0.000D+00
 Coeff-En:   0.000D+00 0.000D+00 0.000D+00 0.000D+00 0.000D+00 0.000D+00
 Coeff-En:   0.000D+00 0.000D+00 0.000D+00 0.000D+00 0.000D+00 0.000D+00
 Coeff-En:   0.000D+00 0.100D+01
 Coeff:     -0.114D-04-0.276D-03-0.118D-03-0.149D-02 0.316D-03 0.563D-03
 Coeff:     -0.855D-03-0.498D-04-0.606D-02 0.315D-01 0.297D-01 0.160D-01
 Coeff:     -0.258D-01 0.170D+00-0.801D-01-0.152D+00-0.720D+00-0.163D+00
 Coeff:      0.126D+01 0.641D+00
 Gap=     0.179 Goal=   None    Shift=    0.000
 Gap=     0.013 Goal=   None    Shift=    0.000
 RMSDP=1.62D-05 MaxDP=2.15D-03 DE=-1.55D-05 OVMax= 2.04D-02

 Cycle  25  Pass 1  IDiag  1:
 RMSU=  1.40D-05    CP:  1.00D+00  3.00D+00  3.00D+00  2.80D+00
 E= -5002.06657706843     Delta-E=       -0.000010067753 Rises=F Damp=F
 DIIS: error= 6.33D-05 at cycle  25 NSaved=  20.
 NSaved=20 IEnMin=20 EnMin= -5002.06657706843     IErMin=20 ErrMin= 6.33D-05
 ErrMax= 6.33D-05  0.00D+00 EMaxC= 1.00D-01 BMatC= 6.76D-06 BMatP= 4.08D-05
 IDIUse=1 WtCom= 1.00D+00 WtEn= 0.00D+00
 Coeff-Com:  0.699D-04-0.289D-03 0.292D-04 0.278D-03 0.209D-04 0.789D-04
 Coeff-Com: -0.857D-03 0.135D-03 0.238D-01 0.248D-01 0.525D-01-0.152D+00
 Coeff-Com: -0.158D+00 0.134D+00 0.187D+00 0.753D-01-0.357D+00-0.570D-01
 Coeff-Com:  0.291D+00 0.937D+00
 Coeff:      0.699D-04-0.289D-03 0.292D-04 0.278D-03 0.209D-04 0.789D-04
 Coeff:     -0.857D-03 0.135D-03 0.238D-01 0.248D-01 0.525D-01-0.152D+00
 Coeff:     -0.158D+00 0.134D+00 0.187D+00 0.753D-01-0.357D+00-0.570D-01
 Coeff:      0.291D+00 0.937D+00
 Gap=     0.179 Goal=   None    Shift=    0.000
 Gap=     0.013 Goal=   None    Shift=    0.000
 RMSDP=4.81D-06 MaxDP=6.15D-04 DE=-1.01D-05 OVMax= 5.96D-03

 Cycle  26  Pass 1  IDiag  1:
 RMSU=  2.11D-06    CP:  1.00D+00  3.00D+00  3.00D+00  3.00D+00  1.28D+00
 E= -5002.06657889265     Delta-E=       -0.000001824219 Rises=F Damp=F
 DIIS: error= 2.19D-05 at cycle  26 NSaved=  20.
 NSaved=20 IEnMin=20 EnMin= -5002.06657889265     IErMin=20 ErrMin= 2.19D-05
 ErrMax= 2.19D-05  0.00D+00 EMaxC= 1.00D-01 BMatC= 8.96D-07 BMatP= 6.76D-06
 IDIUse=1 WtCom= 1.00D+00 WtEn= 0.00D+00
 Coeff-Com: -0.302D-04 0.348D-03 0.472D-04 0.138D-04 0.668D-04 0.169D-03
 Coeff-Com: -0.797D-03-0.481D-02-0.410D-02 0.362D-02-0.120D+00-0.109D+00
 Coeff-Com:  0.148D+00 0.132D+00 0.137D+00-0.221D+00-0.160D+00-0.474D-01
 Coeff-Com:  0.525D+00 0.720D+00
 Coeff:     -0.302D-04 0.348D-03 0.472D-04 0.138D-04 0.668D-04 0.169D-03
 Coeff:     -0.797D-03-0.481D-02-0.410D-02 0.362D-02-0.120D+00-0.109D+00
 Coeff:      0.148D+00 0.132D+00 0.137D+00-0.221D+00-0.160D+00-0.474D-01
 Coeff:      0.525D+00 0.720D+00
 Gap=     0.179 Goal=   None    Shift=    0.000
 Gap=     0.013 Goal=   None    Shift=    0.000
 RMSDP=1.04D-05 MaxDP=1.34D-03 DE=-1.82D-06 OVMax= 1.32D-02

 Cycle  27  Pass 1  IDiag  1:
 RMSU=  4.10D-06    CP:  1.00D+00  3.00D+00  3.00D+00  3.00D+00  1.88D+00
                    CP:  3.00D+00
 E= -5002.06657918171     Delta-E=       -0.000000289061 Rises=F Damp=F
 DIIS: error= 3.83D-05 at cycle  27 NSaved=  20.
 NSaved=20 IEnMin=20 EnMin= -5002.06657918171     IErMin=19 ErrMin= 2.19D-05
 ErrMax= 3.83D-05  0.00D+00 EMaxC= 1.00D-01 BMatC= 2.04D-06 BMatP= 8.96D-07
 IDIUse=1 WtCom= 1.00D+00 WtEn= 0.00D+00
 Coeff-Com:  0.646D-04 0.119D-03-0.218D-04-0.141D-03 0.238D-03 0.229D-03
 Coeff-Com: -0.532D-02-0.317D-02 0.131D-01-0.443D-01-0.502D-01 0.849D-01
 Coeff-Com:  0.619D-01 0.125D+00-0.133D+00-0.191D+00-0.984D-01 0.226D+00
 Coeff-Com:  0.495D+00 0.520D+00
 Coeff:      0.646D-04 0.119D-03-0.218D-04-0.141D-03 0.238D-03 0.229D-03
 Coeff:     -0.532D-02-0.317D-02 0.131D-01-0.443D-01-0.502D-01 0.849D-01
 Coeff:      0.619D-01 0.125D+00-0.133D+00-0.191D+00-0.984D-01 0.226D+00
 Coeff:      0.495D+00 0.520D+00
 Gap=     0.179 Goal=   None    Shift=    0.000
 Gap=     0.013 Goal=   None    Shift=    0.000
 RMSDP=2.44D-06 MaxDP=2.77D-04 DE=-2.89D-07 OVMax= 2.99D-03

 Cycle  28  Pass 1  IDiag  1:
 RMSU=  6.69D-07    CP:  1.00D+00  3.00D+00  3.00D+00  3.00D+00  1.76D+00
                    CP:  2.91D+00  6.03D-01
 E= -5002.06657956994     Delta-E=       -0.000000388225 Rises=F Damp=F
 DIIS: error= 1.02D-05 at cycle  28 NSaved=  20.
 NSaved=20 IEnMin=20 EnMin= -5002.06657956994     IErMin=20 ErrMin= 1.02D-05
 ErrMax= 1.02D-05  0.00D+00 EMaxC= 1.00D-01 BMatC= 1.64D-07 BMatP= 8.96D-07
 IDIUse=1 WtCom= 1.00D+00 WtEn= 0.00D+00
 Coeff-Com:  0.587D-04-0.424D-05 0.652D-04 0.196D-04-0.147D-03-0.136D-03
 Coeff-Com: -0.101D-02-0.491D-02-0.110D-01-0.211D-01 0.803D-02 0.170D-01
 Coeff-Com:  0.261D-01 0.153D-01-0.227D-02-0.442D-01-0.193D-01 0.116D+00
 Coeff-Com:  0.151D+00 0.771D+00
 Coeff:      0.587D-04-0.424D-05 0.652D-04 0.196D-04-0.147D-03-0.136D-03
 Coeff:     -0.101D-02-0.491D-02-0.110D-01-0.211D-01 0.803D-02 0.170D-01
 Coeff:      0.261D-01 0.153D-01-0.227D-02-0.442D-01-0.193D-01 0.116D+00
 Coeff:      0.151D+00 0.771D+00
 Gap=     0.179 Goal=   None    Shift=    0.000
 Gap=     0.013 Goal=   None    Shift=    0.000
 RMSDP=1.06D-06 MaxDP=1.17D-04 DE=-3.88D-07 OVMax= 1.31D-03

 Cycle  29  Pass 1  IDiag  1:
 RMSU=  4.59D-07    CP:  1.00D+00  3.00D+00  3.00D+00  3.00D+00  1.82D+00
                    CP:  3.00D+00  7.23D-01  7.13D-01
 E= -5002.06657953225     Delta-E=        0.000000037689 Rises=F Damp=F
 DIIS: error= 1.48D-05 at cycle  29 NSaved=  20.
 NSaved=20 IEnMin=19 EnMin= -5002.06657956994     IErMin=19 ErrMin= 1.02D-05
 ErrMax= 1.48D-05  0.00D+00 EMaxC= 1.00D-01 BMatC= 4.47D-07 BMatP= 1.64D-07
 IDIUse=1 WtCom= 1.00D+00 WtEn= 0.00D+00
 Coeff-Com: -0.161D-04 0.802D-04 0.250D-04-0.287D-04-0.872D-03-0.168D-04
 Coeff-Com:  0.239D-02 0.269D-01 0.142D-01-0.201D-01-0.195D-01 0.187D-03
 Coeff-Com:  0.219D-01-0.863D-02-0.303D-01-0.974D-01-0.444D-01 0.117D+00
 Coeff-Com:  0.520D+00 0.519D+00
 Coeff:     -0.161D-04 0.802D-04 0.250D-04-0.287D-04-0.872D-03-0.168D-04
 Coeff:      0.239D-02 0.269D-01 0.142D-01-0.201D-01-0.195D-01 0.187D-03
 Coeff:      0.219D-01-0.863D-02-0.303D-01-0.974D-01-0.444D-01 0.117D+00
 Coeff:      0.520D+00 0.519D+00
 Gap=     0.179 Goal=   None    Shift=    0.000
 Gap=     0.013 Goal=   None    Shift=    0.000
 RMSDP=8.88D-07 MaxDP=1.34D-04 DE= 3.77D-08 OVMax= 1.02D-03

 Cycle  30  Pass 1  IDiag  1:
 RMSU=  2.49D-07    CP:  1.00D+00  3.00D+00  3.00D+00  3.00D+00  1.78D+00
                    CP:  3.00D+00  5.71D-01  1.19D+00  8.38D-01
 E= -5002.06657958490     Delta-E=       -0.000000052651 Rises=F Damp=F
 DIIS: error= 1.05D-05 at cycle  30 NSaved=  20.
 NSaved=20 IEnMin=20 EnMin= -5002.06657958490     IErMin=18 ErrMin= 1.02D-05
 ErrMax= 1.05D-05  0.00D+00 EMaxC= 1.00D-01 BMatC= 1.61D-07 BMatP= 1.64D-07
 IDIUse=1 WtCom= 1.00D+00 WtEn= 0.00D+00
 Coeff-Com:  0.374D-04 0.420D-04 0.524D-04-0.906D-03-0.712D-03-0.107D-02
 Coeff-Com: -0.216D-02 0.157D-04 0.113D-01 0.848D-02 0.112D-01-0.140D-01
 Coeff-Com: -0.396D-01-0.102D-02 0.109D-02-0.206D-01 0.200D+00-0.307D+00
 Coeff-Com:  0.242D+00 0.913D+00
 Coeff:      0.374D-04 0.420D-04 0.524D-04-0.906D-03-0.712D-03-0.107D-02
 Coeff:     -0.216D-02 0.157D-04 0.113D-01 0.848D-02 0.112D-01-0.140D-01
 Coeff:     -0.396D-01-0.102D-02 0.109D-02-0.206D-01 0.200D+00-0.307D+00
 Coeff:      0.242D+00 0.913D+00
 Gap=     0.179 Goal=   None    Shift=    0.000
 Gap=     0.013 Goal=   None    Shift=    0.000
 RMSDP=1.07D-06 MaxDP=1.32D-04 DE=-5.27D-08 OVMax= 1.36D-03

 Cycle  31  Pass 1  IDiag  1:
 RMSU=  2.27D-07    CP:  1.00D+00  3.00D+00  3.00D+00  3.00D+00  1.84D+00
                    CP:  3.00D+00  6.93D-01  9.50D-01  1.03D+00  2.37D+00
 E= -5002.06657962399     Delta-E=       -0.000000039088 Rises=F Damp=F
 DIIS: error= 2.22D-06 at cycle  31 NSaved=  20.
 NSaved=20 IEnMin=20 EnMin= -5002.06657962399     IErMin=20 ErrMin= 2.22D-06
 ErrMax= 2.22D-06  0.00D+00 EMaxC= 1.00D-01 BMatC= 8.79D-09 BMatP= 1.61D-07
 IDIUse=1 WtCom= 1.00D+00 WtEn= 0.00D+00
 Coeff-Com:  0.998D-05 0.983D-04-0.357D-04 0.254D-04 0.267D-04 0.181D-02
 Coeff-Com:  0.187D-02 0.225D-02 0.220D-02 0.510D-02-0.263D-02-0.239D-01
 Coeff-Com:  0.831D-03-0.139D-01-0.327D-01 0.153D+00-0.221D+00 0.123D+00
 Coeff-Com:  0.461D+00 0.544D+00
 Coeff:      0.998D-05 0.983D-04-0.357D-04 0.254D-04 0.267D-04 0.181D-02
 Coeff:      0.187D-02 0.225D-02 0.220D-02 0.510D-02-0.263D-02-0.239D-01
 Coeff:      0.831D-03-0.139D-01-0.327D-01 0.153D+00-0.221D+00 0.123D+00
 Coeff:      0.461D+00 0.544D+00
 Gap=     0.179 Goal=   None    Shift=    0.000
 Gap=     0.013 Goal=   None    Shift=    0.000
 RMSDP=1.37D-07 MaxDP=1.73D-05 DE=-3.91D-08 OVMax= 1.67D-04

 Cycle  32  Pass 1  IDiag  1:
 RMSU=  3.23D-08    CP:  1.00D+00  3.00D+00  3.00D+00  3.00D+00  1.85D+00
                    CP:  3.00D+00  6.95D-01  9.69D-01  1.07D+00  2.64D+00
                    CP:  1.20D+00
 E= -5002.06657962199     Delta-E=        0.000000001997 Rises=F Damp=F
 DIIS: error= 3.65D-06 at cycle  32 NSaved=  20.
 NSaved=20 IEnMin=19 EnMin= -5002.06657962399     IErMin=19 ErrMin= 2.22D-06
 ErrMax= 3.65D-06  0.00D+00 EMaxC= 1.00D-01 BMatC= 2.09D-08 BMatP= 8.79D-09
 IDIUse=1 WtCom= 1.00D+00 WtEn= 0.00D+00
 Coeff-Com:  0.946D-05-0.270D-04 0.265D-05 0.381D-03-0.175D-02-0.835D-03
 Coeff-Com:  0.344D-02 0.324D-02 0.545D-02-0.252D-02-0.154D-01 0.465D-03
 Coeff-Com:  0.393D-02-0.323D-02 0.897D-01-0.161D+00-0.656D-02 0.175D-01
 Coeff-Com:  0.418D+00 0.649D+00
 Coeff:      0.946D-05-0.270D-04 0.265D-05 0.381D-03-0.175D-02-0.835D-03
 Coeff:      0.344D-02 0.324D-02 0.545D-02-0.252D-02-0.154D-01 0.465D-03
 Coeff:      0.393D-02-0.323D-02 0.897D-01-0.161D+00-0.656D-02 0.175D-01
 Coeff:      0.418D+00 0.649D+00
 Gap=     0.179 Goal=   None    Shift=    0.000
 Gap=     0.013 Goal=   None    Shift=    0.000
 RMSDP=1.65D-07 MaxDP=1.91D-05 DE= 2.00D-09 OVMax= 2.08D-04

 Cycle  33  Pass 1  IDiag  1:
 RMSU=  1.61D-08    CP:  1.00D+00  3.00D+00  3.00D+00  3.00D+00  1.86D+00
                    CP:  3.00D+00  7.17D-01  9.25D-01  1.12D+00  2.89D+00
                    CP:  1.30D+00  8.87D-01
 E= -5002.06657962564     Delta-E=       -0.000000003651 Rises=F Damp=F
 DIIS: error= 1.35D-06 at cycle  33 NSaved=  20.
 NSaved=20 IEnMin=20 EnMin= -5002.06657962564     IErMin=20 ErrMin= 1.35D-06
 ErrMax= 1.35D-06  0.00D+00 EMaxC= 1.00D-01 BMatC= 2.54D-09 BMatP= 8.79D-09
 IDIUse=1 WtCom= 1.00D+00 WtEn= 0.00D+00
 Coeff-Com: -0.564D-04-0.525D-05 0.438D-03-0.320D-03 0.199D-06 0.101D-02
 Coeff-Com:  0.501D-03 0.198D-02-0.168D-02-0.522D-02-0.334D-04 0.442D-02
 Coeff-Com:  0.362D-02 0.318D-01-0.554D-01-0.107D-01-0.959D-01 0.121D+00
 Coeff-Com:  0.268D+00 0.737D+00
 Coeff:     -0.564D-04-0.525D-05 0.438D-03-0.320D-03 0.199D-06 0.101D-02
 Coeff:      0.501D-03 0.198D-02-0.168D-02-0.522D-02-0.334D-04 0.442D-02
 Coeff:      0.362D-02 0.318D-01-0.554D-01-0.107D-01-0.959D-01 0.121D+00
 Coeff:      0.268D+00 0.737D+00
 Gap=     0.179 Goal=   None    Shift=    0.000
 Gap=     0.013 Goal=   None    Shift=    0.000
 RMSDP=7.10D-08 MaxDP=8.70D-06 DE=-3.65D-09 OVMax= 8.97D-05

 Cycle  34  Pass 1  IDiag  1:
 RMSU=  1.38D-08    CP:  1.00D+00  3.00D+00  3.00D+00  3.00D+00  1.86D+00
                    CP:  3.00D+00  7.25D-01  9.13D-01  1.14D+00  3.00D+00
                    CP:  1.33D+00  8.93D-01  1.38D+00
 E= -5002.06657962619     Delta-E=       -0.000000000549 Rises=F Damp=F
 DIIS: error= 4.99D-07 at cycle  34 NSaved=  20.
 NSaved=20 IEnMin=20 EnMin= -5002.06657962619     IErMin=20 ErrMin= 4.99D-07
 ErrMax= 4.99D-07  0.00D+00 EMaxC= 1.00D-01 BMatC= 3.62D-10 BMatP= 2.54D-09
 IDIUse=1 WtCom= 1.00D+00 WtEn= 0.00D+00
 Coeff-Com:  0.417D-04 0.317D-03 0.894D-03 0.380D-03-0.905D-03-0.856D-03
 Coeff-Com:  0.348D-03 0.357D-03-0.505D-03-0.771D-03-0.167D-03 0.166D-02
 Coeff-Com:  0.201D-02 0.112D-01 0.307D-02-0.777D-01-0.278D-01-0.101D-01
 Coeff-Com:  0.292D+00 0.807D+00
 Coeff:      0.417D-04 0.317D-03 0.894D-03 0.380D-03-0.905D-03-0.856D-03
 Coeff:      0.348D-03 0.357D-03-0.505D-03-0.771D-03-0.167D-03 0.166D-02
 Coeff:      0.201D-02 0.112D-01 0.307D-02-0.777D-01-0.278D-01-0.101D-01
 Coeff:      0.292D+00 0.807D+00
 Gap=     0.179 Goal=   None    Shift=    0.000
 Gap=     0.013 Goal=   None    Shift=    0.000
 RMSDP=2.16D-08 MaxDP=2.78D-06 DE=-5.49D-10 OVMax= 2.67D-05

 Cycle  35  Pass 1  IDiag  1:
 RMSU=  1.03D-08    CP:  1.00D+00  3.00D+00  3.00D+00  3.00D+00  1.86D+00
                    CP:  3.00D+00  7.26D-01  9.12D-01  1.14D+00  3.00D+00
                    CP:  1.34D+00  9.48D-01  1.68D+00  1.54D+00
 E= -5002.06657962634     Delta-E=       -0.000000000156 Rises=F Damp=F
 DIIS: error= 3.18D-07 at cycle  35 NSaved=  20.
 NSaved=20 IEnMin=20 EnMin= -5002.06657962634     IErMin=20 ErrMin= 3.18D-07
 ErrMax= 3.18D-07  0.00D+00 EMaxC= 1.00D-01 BMatC= 1.72D-10 BMatP= 3.62D-10
 IDIUse=1 WtCom= 1.00D+00 WtEn= 0.00D+00
 Coeff-Com:  0.695D-04 0.294D-03 0.119D-03-0.276D-03-0.323D-03 0.323D-03
 Coeff-Com:  0.390D-03-0.254D-03-0.851D-03-0.574D-03 0.145D-02-0.128D-03
 Coeff-Com:  0.123D-01 0.165D-02-0.417D-01-0.220D-01-0.293D-01-0.182D-01
 Coeff-Com:  0.451D+00 0.646D+00
 Coeff:      0.695D-04 0.294D-03 0.119D-03-0.276D-03-0.323D-03 0.323D-03
 Coeff:      0.390D-03-0.254D-03-0.851D-03-0.574D-03 0.145D-02-0.128D-03
 Coeff:      0.123D-01 0.165D-02-0.417D-01-0.220D-01-0.293D-01-0.182D-01
 Coeff:      0.451D+00 0.646D+00
 Gap=     0.179 Goal=   None    Shift=    0.000
 Gap=     0.013 Goal=   None    Shift=    0.000
 RMSDP=1.78D-08 MaxDP=2.16D-06 DE=-1.56D-10 OVMax= 2.21D-05

 Cycle  36  Pass 1  IDiag  1:
 RMSU=  2.19D-09    CP:  1.00D+00  3.00D+00  3.00D+00  3.00D+00  1.86D+00
                    CP:  3.00D+00  7.28D-01  9.08D-01  1.15D+00  3.00D+00
                    CP:  1.35D+00  9.62D-01  1.84D+00  1.69D+00  1.59D+00
 E= -5002.06657962634     Delta-E=        0.000000000007 Rises=F Damp=F
 DIIS: error= 1.40D-07 at cycle  36 NSaved=  20.
 NSaved=20 IEnMin=19 EnMin= -5002.06657962634     IErMin=20 ErrMin= 1.40D-07
 ErrMax= 1.40D-07  0.00D+00 EMaxC= 1.00D-01 BMatC= 3.50D-11 BMatP= 1.72D-10
 IDIUse=1 WtCom= 1.00D+00 WtEn= 0.00D+00
 Coeff-Com:  0.373D-04-0.173D-05 0.625D-04 0.282D-04 0.288D-03 0.676D-04
 Coeff-Com: -0.433D-03-0.453D-03-0.521D-03 0.251D-03 0.523D-03 0.498D-02
 Coeff-Com:  0.242D-02-0.519D-02-0.104D-01-0.327D-01-0.161D+00 0.118D+00
 Coeff-Com:  0.620D+00 0.464D+00
 Coeff:      0.373D-04-0.173D-05 0.625D-04 0.282D-04 0.288D-03 0.676D-04
 Coeff:     -0.433D-03-0.453D-03-0.521D-03 0.251D-03 0.523D-03 0.498D-02
 Coeff:      0.242D-02-0.519D-02-0.104D-01-0.327D-01-0.161D+00 0.118D+00
 Coeff:      0.620D+00 0.464D+00
 Gap=     0.179 Goal=   None    Shift=    0.000
 Gap=     0.013 Goal=   None    Shift=    0.000
 RMSDP=4.10D-09 MaxDP=6.03D-07 DE= 7.28D-12 OVMax= 4.75D-06

 SCF Done:  E(UM06L) =  -5002.06657963     A.U. after   36 cycles
            NFock= 36  Conv=0.41D-08     -V/T= 2.0016
[...]
     27        6          -0.000055119   -0.000049324    0.000024943
     28        1           0.000027170   -0.000009844   -0.000005861
 -------------------------------------------------------------------
 Cartesian Forces:  Max     0.000181535 RMS     0.000050650
 Leave Link  716 at Sat Jan 21 15:34:56 2023, MaxMem= 14763950080 cpu:               0.0 elap:               0.1
 (Enter /software/commercial/gaussian/g16/AVX2/g16/l103.exe)

 GradGradGradGradGradGradGradGradGradGradGradGradGradGradGradGradGradGrad
 Berny optimization.
 Search for a local minimum.
 Step number   1 out of a maximum of  168
 All quantities printed in internal units (Hartrees-Bohrs-Radians)
 Second derivative matrix not updated -- first step.
 ITU=  0
     Eigenvalues ---    0.01160   0.01295   0.01334   0.01372   0.01453
     Eigenvalues ---    0.01791   0.02211   0.03164   0.03252   0.03777
     Eigenvalues ---    0.03799   0.04793   0.04834   0.05037   0.05374
     Eigenvalues ---    0.05410   0.06427   0.06765   0.06836   0.06859
     Eigenvalues ---    0.07265   0.07656   0.07824   0.07860   0.08206
     Eigenvalues ---    0.08303   0.08341   0.09985   0.11240   0.11548
     Eigenvalues ---    0.18258   0.20633   0.20904   0.20940   0.21817
     Eigenvalues ---    0.22828   0.23090   0.24981   0.25519   0.26793
     Eigenvalues ---    0.30423   0.30449   0.33628   0.33878   0.34022
     Eigenvalues ---    0.35344   0.36521   0.37279   0.37479   0.37952
     Eigenvalues ---    0.38955   0.51021   0.51680   0.52916   0.61522
     Eigenvalues ---    0.62332   0.62516   0.62866   0.67490   0.71636
     Eigenvalues ---    0.76174   0.77119   0.80017   0.81441   0.83682
     Eigenvalues ---    0.85795   1.46221   1.46633   1.46650   1.47106
     Eigenvalues ---    1.47248   1.47527   2.29338   2.29421   2.29764
     Eigenvalues ---    2.29892   2.30536   2.30834
 RFO step:  Lambda=-1.16670762D-06 EMin= 1.16029571D-02
 Linear search not attempted -- first point.
 B after Tr=    -0.000000   -0.000015   -0.000068
         Rot=    1.000000   -0.000004   -0.000000    0.000000 Ang=  -0.00 deg.
 Variable       Old X    -DE/DX   Delta X   Delta X   Delta X     New X
                                 (Linear)    (Quad)   (Total)
    X1       -2.63906  -0.00001   0.00000  -0.00007  -0.00007  -2.63913
    Y1       -4.07246   0.00000   0.00000  -0.00043  -0.00047  -4.07293
    Z1        2.82980   0.00005   0.00000   0.00008  -0.00002   2.82978
    X2       -2.69273   0.00006   0.00000   0.00024   0.00024  -2.69249
    Y2       -0.29843  -0.00004   0.00000  -0.00039  -0.00044  -0.29887
    Z2        4.83157  -0.00004   0.00000  -0.00064  -0.00071   4.83086
    X3       -3.41221  -0.00004   0.00000  -0.00014  -0.00014  -3.41235
    Y3       -2.51968  -0.00000   0.00000  -0.00027  -0.00032  -2.52000
    Z3        4.44987  -0.00000   0.00000  -0.00024  -0.00033   4.44955
    X4       -4.93434   0.00003   0.00000  -0.00018  -0.00018  -4.93451
    Y4       -3.20930   0.00002   0.00000   0.00018   0.00012  -3.20918
    Z4        5.69785  -0.00002   0.00000  -0.00025  -0.00034   5.69751
    X5        2.68751   0.00005   0.00000   0.00049   0.00049   2.68800
    Y5       -0.32650   0.00007   0.00000   0.00077   0.00079  -0.32571
    Z5       -4.62663  -0.00003   0.00000   0.00021   0.00014  -4.62649
    X6        2.65364  -0.00014   0.00000  -0.00045  -0.00045   2.65318
    Y6       -4.09209   0.00007   0.00000   0.00113   0.00114  -4.09096
    Z6       -2.62176   0.00012   0.00000   0.00106   0.00096  -2.62080
    X7        3.42480   0.00006   0.00000   0.00026   0.00026   3.42506
    Y7       -2.54223  -0.00002   0.00000   0.00083   0.00085  -2.54138
    Z7       -4.24532  -0.00001   0.00000   0.00103   0.00094  -4.24438
    X8        4.95361  -0.00002   0.00000   0.00057   0.00056   4.95417
    Y8       -3.22420   0.00002   0.00000   0.00057   0.00060  -3.22360
    Z8       -5.48794   0.00002   0.00000   0.00174   0.00164  -5.48630
    X9       -2.70023  -0.00001   0.00000  -0.00017  -0.00017  -2.70040
    Y9        4.42881   0.00009   0.00000  -0.00024  -0.00028   4.42853
    Z9        2.24211  -0.00001   0.00000  -0.00039  -0.00042   2.24169
   X10       -2.65235   0.00014   0.00000   0.00042   0.00042  -2.65193
   Y10       -4.09184   0.00007   0.00000   0.00112   0.00112  -4.09071
   Z10       -2.62213   0.00012   0.00000   0.00106   0.00096  -2.62117
   X11       -2.68908  -0.00005   0.00000  -0.00046  -0.00046  -2.68954
   Y11       -0.32572   0.00007   0.00000   0.00075   0.00077  -0.32495
   Z11       -4.62598  -0.00003   0.00000   0.00020   0.00013  -4.62585
   X12       -3.42513  -0.00006   0.00000  -0.00025  -0.00025  -3.42538
   Y12       -2.54188  -0.00002   0.00000   0.00081   0.00083  -2.54105
   Z12       -4.24485  -0.00001   0.00000   0.00102   0.00093  -4.24392
   X13       -4.95429   0.00002   0.00000  -0.00055  -0.00055  -4.95484
   Y13       -3.22424   0.00002   0.00000   0.00056   0.00059  -3.22365
   Z13       -5.48681   0.00002   0.00000   0.00170   0.00161  -5.48520
   X14        2.69307  -0.00006   0.00000  -0.00021  -0.00021   2.69286
   Y14       -0.29706  -0.00004   0.00000  -0.00038  -0.00044  -0.29750
   Z14        4.83145  -0.00004   0.00000  -0.00064  -0.00072   4.83074
   X15        2.64067   0.00000   0.00000   0.00003   0.00003   2.64070
   Y15       -4.07105   0.00000   0.00000  -0.00043  -0.00047  -4.07152
   Z15        2.82960   0.00005   0.00000   0.00009  -0.00001   2.82959
   X16        3.41326   0.00004   0.00000   0.00015   0.00015   3.41341
   Y16       -2.51811   0.00000   0.00000  -0.00027  -0.00032  -2.51843
   Z16        4.44974  -0.00001   0.00000  -0.00025  -0.00034   4.44939
   X17        4.93561  -0.00003   0.00000   0.00016   0.00016   4.93577
   Y17       -3.20721   0.00002   0.00000   0.00015   0.00008  -3.20713
   Z17        5.69773  -0.00002   0.00000  -0.00025  -0.00035   5.69738
   X18       -0.00027  -0.00000   0.00000   0.00001   0.00001  -0.00026
   Y18        1.83614  -0.00018   0.00000  -0.00062  -0.00066   1.83548
   Z18        3.07039  -0.00006   0.00000  -0.00063  -0.00068   3.06971
   X19        2.69890   0.00001   0.00000   0.00019   0.00019   2.69909
   Y19        4.42961   0.00009   0.00000  -0.00025  -0.00028   4.42933
   Z19        2.24126  -0.00001   0.00000  -0.00039  -0.00042   2.24084
   X20       -0.00026  -0.00000   0.00000   0.00000  -0.00000  -0.00026
   Y20        1.80077  -0.00004   0.00000   0.00010   0.00011   1.80088
   Z20       -2.87781   0.00002   0.00000  -0.00020  -0.00025  -2.87807
   X21        2.69020  -0.00000   0.00000   0.00029   0.00029   2.69049
   Y21        4.40330  -0.00002   0.00000  -0.00038  -0.00038   4.40293
   Z21       -2.02220  -0.00002   0.00000  -0.00035  -0.00038  -2.02258
   X22       -2.69003   0.00000   0.00000  -0.00032  -0.00032  -2.69035
   Y22        4.40393  -0.00002   0.00000  -0.00041  -0.00041   4.40352
   Z22       -2.02136  -0.00002   0.00000  -0.00035  -0.00038  -2.02174
   X23        0.00048   0.00000   0.00000  -0.00001  -0.00001   0.00047
   Y23       -3.66913  -0.00000   0.00000   0.00018   0.00017  -3.66896
   Z23        0.08672  -0.00001   0.00000   0.00031   0.00021   0.08693
   X24       -0.00029   0.00000   0.00000   0.00000   0.00000  -0.00028
   Y24       -0.13590  -0.00005   0.00000  -0.00023  -0.00024  -0.13614
   Z24        0.13634  -0.00011   0.00000  -0.00047  -0.00054   0.13580
   X25        3.43027   0.00006   0.00000   0.00053   0.00053   3.43080
   Y25        5.14292  -0.00005   0.00000  -0.00061  -0.00062   5.14230
   Z25        0.10284   0.00002   0.00000  -0.00036  -0.00038   0.10246
   X26        4.92095  -0.00003   0.00000   0.00039   0.00039   4.92135
   Y26        6.60011  -0.00001   0.00000  -0.00058  -0.00060   6.59951
   Z26        0.09228  -0.00001   0.00000  -0.00042  -0.00044   0.09184
   X27       -3.43093  -0.00006   0.00000  -0.00053  -0.00053  -3.43146
   Y27        5.14275  -0.00005   0.00000  -0.00062  -0.00064   5.14211
   Z27        0.10364   0.00002   0.00000  -0.00035  -0.00038   0.10327
   X28       -4.92177   0.00003   0.00000  -0.00040  -0.00040  -4.92217
   Y28        6.59977  -0.00001   0.00000  -0.00060  -0.00061   6.59916
   Z28        0.09307  -0.00001   0.00000  -0.00041  -0.00042   0.09265
         Item               Value     Threshold  Converged?
 Maximum Force            0.000182     0.000450     YES
 RMS     Force            0.000051     0.000300     YES
 Maximum Displacement     0.001639     0.001800     YES
 RMS     Displacement     0.000545     0.001200     YES
 Predicted change in Energy=-5.803754D-07
 Optimization completed.
    -- Stationary point found.
 Lowest energy point so far.  Saving SCF results.
 Largest change from initial coordinates is atom    0       0.000 Angstoms.
 GradGradGradGradGradGradGradGradGradGradGradGradGradGradGradGradGradGrad

 Leave Link  103 at Sat Jan 21 15:34:57 2023, MaxMem= 14763950080 cpu:               0.1 elap:               0.3
 (Enter /software/commercial/gaussian/g16/AVX2/g16/l202.exe)
                          Input orientation:                          
 ---------------------------------------------------------------------
 Center     Atomic      Atomic             Coordinates (Angstroms)
 Number     Number       Type             X           Y           Z
 ---------------------------------------------------------------------
      1          8           0       -1.396531   -2.155054    1.497463
      2          8           0       -1.424930   -0.157920    2.556757
      3          6           0       -1.805663   -1.333358    2.354771
      4          1           0       -2.611140   -1.698287    3.015173
      5          8           0        1.422169   -0.172777   -2.448308
      6          8           0        1.404243   -2.165443   -1.387375
      7          6           0        1.812328   -1.345288   -2.246529
      8          1           0        2.621337   -1.706174   -2.904091
      9          8           0       -1.428899    2.343626    1.186474
     10          8           0       -1.403563   -2.165307   -1.387572
     11          8           0       -1.422999   -0.172363   -2.447965
     12          6           0       -1.812500   -1.345106   -2.246279
     13          1           0       -2.621699   -1.706195   -2.903497
     14          8           0        1.425112   -0.157195    2.556694
     15          8           0        1.397382   -2.154306    1.497361
     16          6           0        1.806222   -1.332525    2.354700
     17          1           0        2.611813   -1.697184    3.015111
     18         26           0       -0.000143    0.971643    1.624782
     19          8           0        1.428199    2.344050    1.186026
     20         26           0       -0.000136    0.952928   -1.522873
     21          8           0        1.423595    2.330128   -1.070103
     22          8           0       -1.423504    2.330457   -1.069657
     23         26           0        0.000255   -1.941620    0.045889
     24          8           0       -0.000152   -0.071915    0.072148
     25          6           0        1.815220    2.721515    0.054422
     26          1           0        2.604057    3.492625    0.048831
     27          6           0       -1.815569    2.721425    0.054846
     28          1           0       -2.604489    3.492449    0.049251
 ---------------------------------------------------------------------
                    Distance matrix (angstroms):
                    1          2          3          4          5
     1  O    0.000000
     2  O    2.260852   0.000000
     3  C    1.256005   1.251962   0.000000
     4  H    1.996836   1.997491   1.103674   0.000000
     5  O    5.238664   5.758201   5.902153   6.960200   0.000000
     6  O    4.020788   5.252671   4.999952   5.976953   2.257569
     7  C    4.996996   5.912803   5.853372   6.883108   1.252087
     8  H    5.976490   6.970669   6.884253   7.900415   1.999262
     9  O    4.509532   2.852267   3.876477   4.591176   5.260467
    10  O    2.885062   4.425810   3.854731   4.589173   3.616642
    11  O    4.415673   5.004743   4.955866   5.795343   2.845168
    12  C    3.852876   4.962739   4.601070   5.333427   3.446485
    13  H    4.590312   5.800326   5.334257   5.918684   4.348729
    14  O    3.615948   2.850042   3.444132   4.344710   5.005027
    15  O    2.793913   3.615705   3.415934   4.310447   4.415356
    16  C    3.415996   3.443961   3.611885   4.481416   4.955946
    17  H    4.310420   4.344504   4.481352   5.222953   5.795517
    18  Fe   3.426710   2.043161   3.017584   3.984848   4.463489
    19  O    5.321468   4.034737   5.034596   6.000210   4.420728
    20  Fe   4.553229   4.461771   4.850067   5.868572   2.036319
    21  O    5.887475   5.240095   5.964813   7.014036   2.857268
    22  O    5.168234   4.398057   5.029541   5.858933   4.032953
    23  Fe   2.025743   3.393700   2.993703   3.961722   3.372190
    24  O    2.884591   2.865427   3.171983   4.257198   2.895837
    25  C    6.014868   5.005138   5.902914   6.920503   3.846436
    26  H    7.071033   5.987396   6.932034   7.933665   4.589960
    27  C    5.102625   3.834421   4.661653   5.378691   5.012498
    28  H    5.954055   4.583028   5.407583   5.978334   5.990464
                    6          7          8          9         10
     6  O    0.000000
     7  C    1.255918   0.000000
     8  H    1.998167   1.103232   0.000000
     9  O    5.914651   5.991590   7.038324   0.000000
    10  O    2.807806   3.428147   4.325558   5.191997   0.000000
    11  O    3.618082   3.447269   4.349399   4.420337   2.257573
    12  C    3.429010   3.624828   4.496888   5.053482   1.255921
    13  H    4.326401   4.496938   5.243036   5.878068   1.998166
    14  O    4.425966   4.963109   5.800901   4.034475   5.252728
    15  O    2.884766   3.852713   4.590388   5.321269   4.020976
    16  C    3.854668   4.601251   5.334689   5.034367   5.000085
    17  H    4.589049   5.333654   5.919216   5.999951   5.977123
    18  Fe   4.570197   4.862126   5.878226   2.028743   4.569937
    19  O    5.192157   5.053831   5.878516   2.857098   5.914100
    20  Fe   3.422700   3.015046   3.981294   3.363921   3.422178
    21  O    4.506794   3.878631   4.592366   3.637176   5.320014
    22  O    5.320734   5.036540   6.001689   2.256175   4.507035
    23  Fe   2.018793   2.982348   3.953212   4.659050   2.018799
    24  O    2.912970   3.206685   4.289639   3.019582   2.912496
    25  C    5.111755   4.672609   5.385819   3.456682   6.026686
    26  H    5.959528   5.413033   5.978926   4.345017   7.080711
    27  C    6.027327   5.915752   6.931455   1.254123   5.111797
    28  H    7.081354   6.941367   7.940854   1.998770   5.959605
                   11         12         13         14         15
    11  O    0.000000
    12  C    1.252084   0.000000
    13  H    1.999258   1.103233   0.000000
    14  O    5.758348   5.912852   6.970636   0.000000
    15  O    5.239107   4.997298   5.976735   2.260842   0.000000
    16  C    5.902494   5.853573   6.884384   1.251977   1.255987
    17  H    6.960602   6.883367   7.900610   1.997491   1.996839
    18  Fe   4.463243   4.861798   5.877813   2.043058   3.426495
    19  O    5.259995   5.991054   7.037781   2.852186   4.509222
    20  Fe   2.036323   3.014787   3.981162   4.461678   4.552996
    21  O    4.032872   5.036174   6.001470   4.397776   5.167466
    22  O    2.857243   3.878855   4.592733   5.239604   5.887280
    23  Fe   3.372718   2.982607   3.953346   3.393897   2.025826
    24  O    2.895782   3.206357   4.289271   2.865592   2.884560
    25  C    5.012238   5.915318   6.931101   3.834125   5.101989
    26  H    5.990268   6.940977   7.940561   4.582627   5.953329
    27  C    3.846061   4.672458   5.385672   5.004768   6.014703
    28  H    4.589428   5.412822   5.978705   5.987058   7.070915
                   16         17         18         19         20
    16  C    0.000000
    17  H    1.103674   0.000000
    18  Fe   3.017436   3.984716   0.000000
    19  O    3.876326   4.591086   2.028834   0.000000
    20  Fe   4.849927   5.868447   3.147711   3.363554   0.000000
    21  O    5.028987   5.858334   3.336903   2.256177   2.031918
    22  O    5.964460   7.013630   3.336515   3.636000   2.031986
    23  Fe   2.993848   3.961851   3.313609   4.658959   3.292327
    24  O    3.172092   4.257334   1.870745   3.019569   1.895889
    25  C    4.661180   5.378210   2.970459   1.254110   2.985177
    26  H    5.407000   5.977708   3.952320   1.998770   3.962593
    27  C    5.902644   6.920187   2.970220   3.456010   2.985394
    28  H    6.931799   7.933374   3.952136   4.344381   3.962751
                   21         22         23         24         25
    21  O    0.000000
    22  O    2.847099   0.000000
    23  Fe   4.638875   4.639199   0.000000
    24  O    3.016887   3.016793   1.869889   0.000000
    25  C    1.253440   3.450480   5.003898   3.331538   0.000000
    26  H    1.999226   4.338537   6.025845   4.414566   1.103135
    27  C    3.451204   1.253427   5.004127   3.331484   3.630789
    28  H    4.339286   1.999226   6.026094   4.414497   4.486446
                   26         27         28
    26  H    0.000000
    27  C    4.486411   0.000000
    28  H    5.208546   1.103134   0.000000
 Symmetry turned off by external request.
 Stoichiometry    C6H6Fe3O13(15)
 Framework group  C1[X(C6H6Fe3O13)]
 Deg. of freedom    78
 Full point group                 C1      NOp   1
 Rotational constants (GHZ):           0.2740612           0.2621956           0.2066148
 Leave Link  202 at Sat Jan 21 15:34:57 2023, MaxMem= 14763950080 cpu:               0.1 elap:               0.1
 (Enter /software/commercial/gaussian/g16/AVX2/g16/l9999.exe)
 Unable to Open any file for archive entry.
 1\1\GINC-NODE2010\FOpt\UM06L\Gen\C6H6Fe3O13(15)\SVICCHI\21-Jan-2023\0\
 \#p opt=(cartesian,maxcycle=500) gen um06l int=grid=ultrafine scf=(xqc
 ,intrep,maxconventionalcycle=150) pop=(hirshfeld) nosymm\\FeFeFe-A-0xH
 2O\\0,15\O,-1.3965305359,-2.1550536682,1.4974634092\O,-1.4249299478,-0
 .1579202181,2.556757216\C,-1.8056631582,-1.3333577329,2.3547705908\H,-
 2.6111398236,-1.6982873768,3.0151725716\O,1.4221694331,-0.1727766066,-
 2.448307975\O,1.4042432915,-2.1654426771,-1.3873753755\C,1.8123275327,
 -1.345288486,-2.2465291636\H,2.6213369135,-1.706173551,-2.9040907075\O
 ,-1.428899418,2.3436257061,1.186473538\O,-1.4035628581,-2.1653071246,-
 1.387572278\O,-1.4229986023,-0.1723629226,-2.4479649671\C,-1.812500488
 2,-1.3451059014,-2.2462794138\H,-2.6216993812,-1.7061952744,-2.9034966
 237\O,1.4251123706,-0.1571948062,2.5566937524\O,1.3973820948,-2.154305
 5425,1.4973606689\C,1.8062219038,-1.332524996,2.35469992\H,2.611813123
 2,-1.6971842475,3.015110605\Fe,-0.0001429864,0.9716426461,1.624782043\
 O,1.4281985486,2.3440500024,1.1860260511\Fe,-0.0001364224,0.952927878,
 -1.5228728885\O,1.4235951069,2.3301281247,-1.0701033539\O,-1.423503945
 1,2.3304567541,-1.0696569978\Fe,0.0002549988,-1.941619777,0.0458885284
 \O,-0.0001521382,-0.0719149875,0.0721478962\C,1.8152202742,2.721515147
 6,0.0544222441\H,2.6040572149,3.4926252688,0.0488314748\C,-1.815568952
 4,2.7214250354,0.0548464944\H,-2.6044890274,3.4924490719,0.0492507598\
 \Version=ES64L-G16RevC.02\HF=-5002.0665796\S2=56.045602\S2-1=0.\S2A=56
 .00021\RMSD=4.105e-09\RMSF=5.065e-05\Dipole=-0.0001227,0.0020979,-0.01
 58223\Quadrupole=2.040745,-0.7093246,-1.3314204,0.0018657,0.0005311,-0
 .0528942\PG=C01 [X(C6H6Fe3O13)]\\@
 The archive entry for this job was punched.


 NATURE REVEALS EVERY SECRET ONCE.
                    - RALPH WALDO EMERSON
 Job cpu time:       0 days  3 hours  3 minutes 37.8 seconds.
 Elapsed time:       0 days  1 hours 32 minutes 33.1 seconds.
 File lengths (MBytes):  RWF=    543 Int=      0 D2E=      0 Chk=     51 Scr=      1
 Normal termination of Gaussian 16 at Sat Jan 21 15:34:58 2023.
