 Entering Gaussian System, Link 0=g16
 Input=FeFeFe-A-1xH2O-opt.gjf
 Output=FeFeFe-A-1xH2O-opt.log
 AtFile(1): /zfs/curium/svicchi/00-MOF/01-Gaussian/zw-basis-set/def2-TZVP/H.gbs
            !----------------------------------------------------------------------
            ! Basis Set Exchange
            ! Version v0.9
            ! https://www.basissetexchange.org
            !----------------------------------------------------------------------
            !   Basis set: def2-TZVP
            ! Description: def2-TZVP
            !        Role: orbital
            !     Version: 1  (Data from Turbomole 7.3)
            !----------------------------------------------------------------------
            H     0
            S    3   1.00
                 34.0613410              0.60251978D-02
                  5.1235746              0.45021094D-01
                  1.1646626              0.20189726
            S    1   1.00
                  0.32723041             1.0000000
            S    1   1.00
                  0.10307241             1.0000000
            P    1   1.00
                  0.8000000              1.0000000
 AtFile(1): /zfs/curium/svicchi/00-MOF/01-Gaussian/zw-basis-set/def2-TZVP/O.gbs
            !----------------------------------------------------------------------
            ! Basis Set Exchange
            ! Version v0.9
            ! https://www.basissetexchange.org
            !----------------------------------------------------------------------
            !   Basis set: def2-TZVP
            ! Description: def2-TZVP
            !        Role: orbital
            !     Version: 1  (Data from Turbomole 7.3)
            !----------------------------------------------------------------------
            O     0
            S    6   1.00
              27032.3826310              0.21726302465D-03
               4052.3871392              0.16838662199D-02
                922.32722710             0.87395616265D-02
                261.24070989             0.35239968808D-01
                 85.354641351            0.11153519115
                 31.035035245            0.25588953961
            S    2   1.00
                 12.260860728            0.39768730901
                  4.9987076005           0.24627849430
            S    1   1.00
                  1.1703108158           1.0000000
            S    1   1.00
                  0.46474740994          1.0000000
            S    1   1.00
                  0.18504536357          1.0000000
            P    4   1.00
                 63.274954801            0.60685103418D-02
                 14.627049379            0.41912575824D-01
                  4.4501223456           0.16153841088
                  1.5275799647           0.35706951311
            P    1   1.00
                  0.52935117943           .44794207502
            P    1   1.00
                  0.17478421270           .24446069663
            D    1   1.00
                  2.31400000             1.0000000
            D    1   1.00
                  0.64500000             1.0000000
            F    1   1.00
                  1.42800000             1.0000000
 AtFile(1): /zfs/curium/svicchi/00-MOF/01-Gaussian/zw-basis-set/def2-TZVP/C.gbs
            !----------------------------------------------------------------------
            ! Basis Set Exchange
            ! Version v0.9
            ! https://www.basissetexchange.org
            !----------------------------------------------------------------------
            !   Basis set: def2-TZVP
            ! Description: def2-TZVP
            !        Role: orbital
            !     Version: 1  (Data from Turbomole 7.3)
            !----------------------------------------------------------------------
            C     0
            S    6   1.00
              13575.3496820              0.22245814352D-03
               2035.2333680              0.17232738252D-02
                463.22562359             0.89255715314D-02
                131.20019598             0.35727984502D-01
                 42.853015891            0.11076259931
                 15.584185766            0.24295627626
            S    2   1.00
                  6.2067138508           0.41440263448
                  2.5764896527           0.23744968655
            S    1   1.00
                  0.57696339419          1.0000000
            S    1   1.00
                  0.22972831358          1.0000000
            S    1   1.00
                  0.95164440028D-01      1.0000000
            P    4   1.00
                 34.697232244            0.53333657805D-02
                  7.9582622826           0.35864109092D-01
                  2.3780826883           0.14215873329
                  0.81433208183          0.34270471845
            P    1   1.00
                  0.28887547253           .46445822433
            P    1   1.00
                  0.10056823671           .24955789874
            D    1   1.00
                  1.09700000             1.0000000
            D    1   1.00
                  0.31800000             1.0000000
            F    1   1.00
                  0.76100000             1.0000000
 AtFile(1): /zfs/curium/svicchi/00-MOF/01-Gaussian/zw-basis-set/def2-TZVP/Fe.gbs
            !----------------------------------------------------------------------
            ! Basis Set Exchange
            ! Version v0.9
            ! https://www.basissetexchange.org
            !----------------------------------------------------------------------
            !   Basis set: def2-TZVP
            ! Description: def2-TZVP
            !        Role: orbital
            !     Version: 1  (Data from Turbomole 7.3)
            !----------------------------------------------------------------------
            Fe     0
            S    8   1.00
             300784.8463700              0.22806273096D-03
              45088.9705570              0.17681788761D-02
              10262.5163170              0.91927083490D-02
               2905.2897293              0.37355495807D-01
                946.11487137             0.12151108426
                339.87832894             0.28818881468
                131.94425588             0.41126612677
                 52.111494077            0.21518583573
            S    4   1.00
                329.48839267            -0.24745216477D-01
                101.92332739            -0.11683089050
                 16.240462745            0.55293621136
                  6.8840675801           0.53601640182
            S    2   1.00
                 10.470693782           -0.22912708577
                  1.7360039648           0.71159319984
            S    1   1.00
                  0.72577288979          1.0000000
            S    1   1.00
                  0.11595528203          1.0000000
            S    1   1.00
                  0.41968227746D-01      1.0000000
            P    6   1.00
               1585.3959970              0.23793960179D-02
                375.38006499             0.19253154755D-01
                120.31816501             0.90021836536D-01
                 44.788749031            0.25798172356
                 17.829278584            0.41492649744
                  7.2247153786           0.24207474784
            P    3   1.00
                 28.143219756           -0.29041755152D-01
                  3.8743241412           0.55312260343
                  1.5410752281           0.96771136842
            P    1   1.00
                  0.58285615250          1.0000000
            P    1   1.00
                  0.1349150              1.0000000
            D    4   1.00
                 61.996675034            0.11971972255D-01
                 17.873732552            0.73210135410D-01
                  6.2744782934           0.23103094314
                  2.3552337175           0.39910706494
            D    1   1.00
                  0.85432239901           .41391589765
            D    1   1.00
                  0.27869254413           .21909269782
            D    1   1.00
                  0.0910000              1.0000000
            F    1   1.00
                  1.5980000              1.0000000
 Initial command:
 /software/commercial/gaussian/g16/AVX2/g16/l1.exe "/scratch1/svicchi/G09-78655.pbs02/Gau-3071048.inp" -scrdir="/scratch1/svicchi/G09-78655.pbs02/"
 Entering Link 1 = /software/commercial/gaussian/g16/AVX2/g16/l1.exe PID=   3071049.
  
 Copyright (c) 1988-2021, Gaussian, Inc.  All Rights Reserved.
  
 This is part of the Gaussian(R) 16 program.  It is based on
 the Gaussian(R) 09 system (copyright 2009, Gaussian, Inc.),
 the Gaussian(R) 03 system (copyright 2003, Gaussian, Inc.),
 the Gaussian(R) 98 system (copyright 1998, Gaussian, Inc.),
 the Gaussian(R) 94 system (copyright 1995, Gaussian, Inc.),
 the Gaussian 92(TM) system (copyright 1992, Gaussian, Inc.),
 the Gaussian 90(TM) system (copyright 1990, Gaussian, Inc.),
 the Gaussian 88(TM) system (copyright 1988, Gaussian, Inc.),
 the Gaussian 86(TM) system (copyright 1986, Carnegie Mellon
 University), and the Gaussian 82(TM) system (copyright 1983,
 Carnegie Mellon University). Gaussian is a federally registered
 trademark of Gaussian, Inc.
  
 This software contains proprietary and confidential information,
 including trade secrets, belonging to Gaussian, Inc.
  
 This software is provided under written license and may be
 used, copied, transmitted, or stored only in accord with that
 written license.
  
 The following legend is applicable only to US Government
 contracts under FAR:
  
                    RESTRICTED RIGHTS LEGEND
  
 Use, reproduction and disclosure by the US Government is
 subject to restrictions as set forth in subparagraphs (a)
 and (c) of the Commercial Computer Software - Restricted
 Rights clause in FAR 52.227-19.
  
 Gaussian, Inc.
 340 Quinnipiac St., Bldg. 40, Wallingford CT 06492
  
  
 ---------------------------------------------------------------
 Warning -- This program may not be used in any manner that
 competes with the business of Gaussian, Inc. or will provide
 assistance to any competitor of Gaussian, Inc.  The licensee
 of this program is prohibited from giving any competitor of
 Gaussian, Inc. access to this program.  By using this program,
 the user acknowledges that Gaussian, Inc. is engaged in the
 business of creating and licensing software in the field of
 computational chemistry and represents and warrants to the
 licensee that it is not a competitor of Gaussian, Inc. and that
 it will not use this program in any manner prohibited above.
 ---------------------------------------------------------------
  

 Cite this work as:
 Gaussian 16, Revision C.02,
 M. J. Frisch, G. W. Trucks, H. B. Schlegel, G. E. Scuseria, 
 M. A. Robb, J. R. Cheeseman, G. Scalmani, V. Barone, 
 G. A. Petersson, H. Nakatsuji, X. Li, M. Caricato, A. V. Marenich, 
 J. Bloino, B. G. Janesko, R. Gomperts, B. Mennucci, H. P. Hratchian, 
 J. V. Ortiz, A. F. Izmaylov, J. L. Sonnenberg, D. Williams-Young, 
 F. Ding, F. Lipparini, F. Egidi, J. Goings, B. Peng, A. Petrone, 
 T. Henderson, D. Ranasinghe, V. G. Zakrzewski, J. Gao, N. Rega, 
 G. Zheng, W. Liang, M. Hada, M. Ehara, K. Toyota, R. Fukuda, 
 J. Hasegawa, M. Ishida, T. Nakajima, Y. Honda, O. Kitao, H. Nakai, 
 T. Vreven, K. Throssell, J. A. Montgomery, Jr., J. E. Peralta, 
 F. Ogliaro, M. J. Bearpark, J. J. Heyd, E. N. Brothers, K. N. Kudin, 
 V. N. Staroverov, T. A. Keith, R. Kobayashi, J. Normand, 
 K. Raghavachari, A. P. Rendell, J. C. Burant, S. S. Iyengar, 
 J. Tomasi, M. Cossi, J. M. Millam, M. Klene, C. Adamo, R. Cammi, 
 J. W. Ochterski, R. L. Martin, K. Morokuma, O. Farkas, 
 J. B. Foresman, and D. J. Fox, Gaussian, Inc., Wallingford CT, 2019.
 
 ******************************************
 Gaussian 16:  ES64L-G16RevC.02  7-Dec-2021
                27-Jan-2023 
 ******************************************
 %NProcShared=2
 Will use up to    2 processors via shared memory.
 %mem=110gb
 %chk=/scratch1/svicchi/G09-78655.pbs02/00-opt/FeFeFe-A-1xH2O-opt.chk
 ----------------------------------------------------------------------
 #p opt=(cartesian,maxcycle=500) gen um06l int=grid=ultrafine scf=(xqc,
 intrep,maxconventionalcycle=150) pop=(hirshfeld) nosymm
 ----------------------------------------------------------------------
 1/6=500,10=7,18=10,26=4,38=1/1,3;
 2/12=2,15=1,17=6,18=5,29=2,40=1/2;
 3/5=7,11=2,25=1,30=1,71=1,74=-53,75=-5,116=2/1,2,3;
 4//1;
 5/5=2,8=3,13=1,17=20,38=5,85=150/2,8;
 6/7=2,8=2,9=2,10=2,28=1,79=1/1;
 7/7=1,29=1,30=1/1,2,3,16;
 1/6=500,10=7,18=10,26=4/3(2);
 2/15=1,29=1/2;
 99/12=1/99;
 2/15=1,29=1/2;
 3/5=7,6=1,11=2,25=1,30=1,71=1,74=-53,75=-5,82=7,116=2/1,2,3;
 4/5=5,16=3,69=1/1;
 5/5=2,8=3,13=1,17=20,38=5,85=150/2,8;
 7/7=1,30=1/1,2,3,16;
 1/6=500,18=10,26=4/3(-5);
 2/15=1,29=1/2;
 6/7=2,8=2,9=2,10=2,19=2,28=1,79=1/1;
 99/9=1,12=1/99;
 Leave Link    1 at Fri Jan 27 16:06:03 2023, MaxMem= 14763950080 cpu:               0.0 elap:               0.1
 (Enter /software/commercial/gaussian/g16/AVX2/g16/l101.exe)
 --------------
 FeFeFe-A-1xH2O
 --------------
 Symbolic Z-matrix:
 Charge =  0 Multiplicity =15
 O                     1.47325  -2.16231  -1.50934 
 O                    -0.7714   -2.24132  -1.32036 
 C                     0.33144  -2.57947  -1.8133 
 H                     0.289    -3.3331   -2.61766 
 O                     1.83577   2.19672   1.44039 
 O                     3.1255    0.36843   1.14913 
 C                     2.83002   1.4731    1.6684 
 H                     3.5422    1.85046   2.42285 
 O                    -2.26954   0.16464  -1.12584 
 O                     2.88249   0.31679  -1.64675 
 O                     1.72518   2.24074  -1.43671 
 C                     2.5865    1.49479  -1.95739 
 H                     3.15906   1.92257  -2.79933 
 O                    -0.39158  -2.2988    1.47538 
 O                     1.85112  -2.19579   1.27141 
 C                     0.78105  -2.63626   1.75767 
 H                     0.88939  -3.41338   2.53293 
 Fe                   -1.12885  -0.92389   0.17022 
 O                    -2.07283   0.01326   1.68491 
 Fe                    0.28782   2.00668   0.11131 
 O                    -1.10838   2.0503    1.59713 
 O                    -1.23499   2.16067  -1.28396 
 Fe                    2.08869  -0.78281  -0.15001 
 O                     0.4454    0.10195   0.05542 
 C                    -1.89939   1.19854   2.06108 
 H                    -2.52342   1.52704   2.90961 
 C                    -2.12643   1.32409  -1.57163 
 H                    -2.87649   1.65243  -2.31239 
 O                     0.34538   4.1622   -0.138 
 H                     1.08961   4.21084  -0.75621 
 H                    -0.43378   4.35276  -0.67752 
 
 ITRead=  0  0  0  0  0  0  0  0  0  0  0  0  0  0  0  0  0  0  0  0
 ITRead=  0  0  0  0  0  0  0  0  0  0  0
 MicOpt= -1 -1 -1 -1 -1 -1 -1 -1 -1 -1 -1 -1 -1 -1 -1 -1 -1 -1 -1 -1
 MicOpt= -1 -1 -1 -1 -1 -1 -1 -1 -1 -1 -1
 NAtoms=     31 NQM=       31 NQMF=       0 NMMI=      0 NMMIF=      0
                NMic=       0 NMicF=      0.
                    Isotopes and Nuclear Properties:
 (Nuclear quadrupole moments (NQMom) in fm**2, nuclear magnetic moments (NMagM)
  in nuclear magnetons)

  Atom         1           2           3           4           5           6           7           8           9          10
 IAtWgt=          16          16          12           1          16          16          12           1          16          16
 AtmWgt=  15.9949146  15.9949146  12.0000000   1.0078250  15.9949146  15.9949146  12.0000000   1.0078250  15.9949146  15.9949146
 NucSpn=           0           0           0           1           0           0           0           1           0           0
 AtZEff=  -0.0000000  -0.0000000  -0.0000000  -0.0000000  -0.0000000  -0.0000000  -0.0000000  -0.0000000  -0.0000000  -0.0000000
 NQMom=    0.0000000   0.0000000   0.0000000   0.0000000   0.0000000   0.0000000   0.0000000   0.0000000   0.0000000   0.0000000
 NMagM=    0.0000000   0.0000000   0.0000000   2.7928460   0.0000000   0.0000000   0.0000000   2.7928460   0.0000000   0.0000000
 AtZNuc=   8.0000000   8.0000000   6.0000000   1.0000000   8.0000000   8.0000000   6.0000000   1.0000000   8.0000000   8.0000000

  Atom        11          12          13          14          15          16          17          18          19          20
 IAtWgt=          16          12           1          16          16          12           1          56          16          56
 AtmWgt=  15.9949146  12.0000000   1.0078250  15.9949146  15.9949146  12.0000000   1.0078250  55.9349393  15.9949146  55.9349393
 NucSpn=           0           0           1           0           0           0           1           0           0           0
 AtZEff=  -0.0000000  -0.0000000  -0.0000000  -0.0000000  -0.0000000  -0.0000000  -0.0000000  -0.0000000  -0.0000000  -0.0000000
 NQMom=    0.0000000   0.0000000   0.0000000   0.0000000   0.0000000   0.0000000   0.0000000   0.0000000   0.0000000   0.0000000
 NMagM=    0.0000000   0.0000000   2.7928460   0.0000000   0.0000000   0.0000000   2.7928460   0.0000000   0.0000000   0.0000000
 AtZNuc=   8.0000000   6.0000000   1.0000000   8.0000000   8.0000000   6.0000000   1.0000000  26.0000000   8.0000000  26.0000000

  Atom        21          22          23          24          25          26          27          28          29          30
 IAtWgt=          16          16          56          16          12           1          12           1          16           1
 AtmWgt=  15.9949146  15.9949146  55.9349393  15.9949146  12.0000000   1.0078250  12.0000000   1.0078250  15.9949146   1.0078250
 NucSpn=           0           0           0           0           0           1           0           1           0           1
 AtZEff=  -0.0000000  -0.0000000  -0.0000000  -0.0000000  -0.0000000  -0.0000000  -0.0000000  -0.0000000  -0.0000000  -0.0000000
 NQMom=    0.0000000   0.0000000   0.0000000   0.0000000   0.0000000   0.0000000   0.0000000   0.0000000   0.0000000   0.0000000
 NMagM=    0.0000000   0.0000000   0.0000000   0.0000000   0.0000000   2.7928460   0.0000000   2.7928460   0.0000000   2.7928460
 AtZNuc=   8.0000000   8.0000000  26.0000000   8.0000000   6.0000000   1.0000000   6.0000000   1.0000000   8.0000000   1.0000000

  Atom        31
 IAtWgt=           1
 AtmWgt=   1.0078250
 NucSpn=           1
 AtZEff=  -0.0000000
 NQMom=    0.0000000
 NMagM=    2.7928460
 AtZNuc=   1.0000000
 Leave Link  101 at Fri Jan 27 16:06:03 2023, MaxMem= 14763950080 cpu:               0.1 elap:               0.1
 (Enter /software/commercial/gaussian/g16/AVX2/g16/l103.exe)

 GradGradGradGradGradGradGradGradGradGradGradGradGradGradGradGradGradGrad
 Berny optimization.
 Initialization pass.
 No Z-matrix variables, so optimization will use Cartesian coordinates.
 Trust Radius=3.00D-01 FncErr=1.00D-07 GrdErr=1.00D-06 EigMax=2.50D+02 EigMin=1.00D-04
 Number of steps in this run=    186 maximum allowed number of steps=    186.
 GradGradGradGradGradGradGradGradGradGradGradGradGradGradGradGradGradGrad

 Leave Link  103 at Fri Jan 27 16:06:04 2023, MaxMem= 14763950080 cpu:               0.1 elap:               0.1
 (Enter /software/commercial/gaussian/g16/AVX2/g16/l202.exe)
 ---------------------------------------------------------------------------------------------------
                            Z-MATRIX (ANGSTROMS AND DEGREES)
   CD    Cent   Atom    N1       Length/X        N2       Alpha/Y        N3        Beta/Z          J
 ---------------------------------------------------------------------------------------------------
      1      1  O        0   1.473252         -2.162313         -1.509343
      2      2  O        0  -0.771399         -2.241316         -1.320356
      3      3  C        0   0.331435         -2.579468         -1.813302
      4      4  H        0   0.288999         -3.333097         -2.617664
      5      5  O        0   1.835765          2.196724          1.440387
      6      6  O        0   3.125502          0.368429          1.149126
      7      7  C        0   2.830024          1.473099          1.668403
      8      8  H        0   3.542196          1.850458          2.422849
      9      9  O        0  -2.269540          0.164641         -1.125840
     10     10  O        0   2.882489          0.316793         -1.646747
     11     11  O        0   1.725181          2.240738         -1.436705
     12     12  C        0   2.586502          1.494788         -1.957393
     13     13  H        0   3.159061          1.922573         -2.799328
     14     14  O        0  -0.391575         -2.298795          1.475376
     15     15  O        0   1.851122         -2.195789          1.271406
     16     16  C        0   0.781046         -2.636257          1.757667
     17     17  H        0   0.889386         -3.413383          2.532927
     18     18  Fe       0  -1.128854         -0.923889          0.170221
     19     19  O        0  -2.072826          0.013262          1.684913
     20     20  Fe       0   0.287822          2.006681          0.111308
     21     21  O        0  -1.108382          2.050300          1.597133
     22     22  O        0  -1.234991          2.160671         -1.283959
     23     23  Fe       0   2.088690         -0.782808         -0.150012
     24     24  O        0   0.445401          0.101951          0.055417
     25     25  C        0  -1.899389          1.198543          2.061077
     26     26  H        0  -2.523418          1.527040          2.909612
     27     27  C        0  -2.126429          1.324088         -1.571629
     28     28  H        0  -2.876488          1.652425         -2.312394
     29     29  O        0   0.345381          4.162199         -0.138001
     30     30  H        0   1.089610          4.210841         -0.756210
     31     31  H        0  -0.433783          4.352759         -0.677520
 ---------------------------------------------------------------------------------------------------
                         Z-Matrix orientation:                         
 ---------------------------------------------------------------------
 Center     Atomic      Atomic             Coordinates (Angstroms)
 Number     Number       Type             X           Y           Z
 ---------------------------------------------------------------------
      1          8           0        1.473252   -2.162313   -1.509343
      2          8           0       -0.771399   -2.241316   -1.320356
      3          6           0        0.331435   -2.579468   -1.813302
      4          1           0        0.288999   -3.333097   -2.617664
      5          8           0        1.835765    2.196724    1.440387
      6          8           0        3.125502    0.368429    1.149126
      7          6           0        2.830024    1.473099    1.668403
      8          1           0        3.542196    1.850458    2.422849
      9          8           0       -2.269540    0.164641   -1.125840
     10          8           0        2.882489    0.316793   -1.646747
     11          8           0        1.725181    2.240738   -1.436705
     12          6           0        2.586502    1.494788   -1.957393
     13          1           0        3.159061    1.922573   -2.799328
     14          8           0       -0.391575   -2.298795    1.475376
     15          8           0        1.851122   -2.195789    1.271406
     16          6           0        0.781046   -2.636257    1.757667
     17          1           0        0.889386   -3.413383    2.532927
     18         26           0       -1.128854   -0.923889    0.170221
     19          8           0       -2.072826    0.013262    1.684913
     20         26           0        0.287822    2.006681    0.111308
     21          8           0       -1.108382    2.050300    1.597133
     22          8           0       -1.234991    2.160671   -1.283959
     23         26           0        2.088690   -0.782808   -0.150012
     24          8           0        0.445401    0.101951    0.055417
     25          6           0       -1.899389    1.198543    2.061077
     26          1           0       -2.523418    1.527040    2.909612
     27          6           0       -2.126429    1.324088   -1.571629
     28          1           0       -2.876488    1.652425   -2.312394
     29          8           0        0.345381    4.162199   -0.138001
     30          1           0        1.089610    4.210841   -0.756210
     31          1           0       -0.433783    4.352759   -0.677520
 ---------------------------------------------------------------------
                    Distance matrix (angstroms):
                    1          2          3          4          5
     1  O    0.000000
     2  O    2.253978   0.000000
     3  C    1.253058   1.254426   0.000000
     4  H    2.000391   1.999859   1.103067   0.000000
     5  O    5.275749   5.840822   5.971726   7.031300   0.000000
     6  O    4.025176   5.300467   5.027215   5.994644   2.256306
     7  C    5.015488   5.974932   5.898179   6.922911   1.250670
     8  H    5.987069   7.025760   6.919408   7.928386   1.999259
     9  O    4.423831   2.840932   3.842891   4.583212   5.250563
    10  O    2.854960   4.472287   3.863152   4.581546   3.763000
    11  O    4.410851   5.131789   5.031773   5.875791   2.879553
    12  C    3.848956   5.063575   4.658932   5.387295   3.549821
    13  H    4.603510   5.913869   5.407041   5.991020   4.449883
    14  O    3.522038   2.822001   3.378894   4.276206   5.017166
    15  O    2.806505   3.687400   3.460070   4.342645   4.395789
    16  C    3.373000   3.469912   3.599610   4.457714   4.956895
    17  H    4.271536   4.356574   4.460541   5.186087   5.793322
    18  Fe   3.335504   2.021190   2.967785   3.948024   4.487818
    19  O    5.245099   3.975987   4.973955   5.940413   4.483791
    20  Fe   4.627339   4.606201   4.973810   5.996709   2.049072
    21  O    5.836192   5.200314   5.927807   6.978406   2.951950
    22  O    5.106228   4.426481   5.020240   5.855152   4.105229
    23  Fe   2.032136   3.417171   3.013713   3.978966   3.386879
    24  O    2.938000   2.977290   3.270337   4.355385   2.870423
    25  C    5.951299   4.953694   5.853269   6.871348   3.915737
    26  H    7.007985   5.929815   6.878918   7.879175   4.648610
    27  C    5.011644   3.822480   4.619226   5.349566   5.052991
    28  H    5.841006   4.536161   5.333740   5.913453   6.048550
    29  O    6.569028   6.606827   6.946719   7.895022   2.928420
    30  H    6.428957   6.738839   6.913796   7.811337   3.072207
    31  H    6.839216   6.633932   7.066210   7.959834   3.779532
                    6          7          8          9         10
     6  O    0.000000
     7  C    1.255887   0.000000
     8  H    1.998103   1.103983   0.000000
     9  O    5.858624   5.960320   7.015087   0.000000
    10  O    2.806889   3.511412   4.398745   5.180531   0.000000
    11  O    3.486110   3.384028   4.283692   4.512717   2.255004
    12  C    3.348084   3.634029   4.497374   5.103128   1.253707
    13  H    4.243439   4.502323   5.236709   5.946478   1.995862
    14  O    4.426099   4.964186   5.795564   4.044947   5.225749
    15  O    2.866044   3.817931   4.534056   5.319612   3.986528
    16  C    3.859396   4.592721   5.310087   5.046357   4.972585
    17  H    4.606216   5.328338   5.895553   6.013954   5.946120
    18  Fe   4.552789   4.864444   5.881330   2.041038   4.575100
    19  O    5.237922   5.115597   5.953848   2.821692   5.978899
    20  Fe   3.437057   3.028539   3.994819   3.385816   3.560727
    21  O    4.577682   3.981116   4.727538   3.509783   5.427233
    22  O    5.305274   5.070852   6.054599   2.253759   4.526052
    23  Fe   2.021901   2.990874   3.958078   4.565530   2.019766
    24  O    2.906914   3.188761   4.272254   2.961453   2.980422
    25  C    5.174000   4.753622   5.492424   3.370817   6.114883
    26  H    6.029261   5.495712   6.093703   4.266785   7.172791
    27  C    5.991542   5.923381   6.954583   1.250410   5.109750
    28  H    7.046606   6.960114   7.978800   1.997448   5.949186
    29  O    4.876316   4.082622   4.703374   4.877920   4.847719
    30  H    4.747556   4.050064   4.657575   5.271835   4.378479
    31  H    5.646240   4.944515   5.628695   4.594706   5.312822
                   11         12         13         14         15
    11  O    0.000000
    12  C    1.252769   0.000000
    13  H    2.003493   1.104390   0.000000
    14  O    5.793810   5.919807   6.978543   0.000000
    15  O    5.199279   4.958456   5.936538   2.254308   0.000000
    16  C    5.905970   5.841821   6.870523   1.252441   1.255199
    17  H    6.958852   6.865371   7.877613   2.000395   1.999727
    18  Fe   4.554403   4.917378   5.941951   2.034054   3.422075
    19  O    5.397315   6.096774   7.150282   2.866377   4.521975
    20  Fe   2.125354   3.134563   4.089363   4.567208   4.631467
    21  O    4.155661   5.157074   6.128316   4.409452   5.185946
    22  O    2.965191   3.937096   4.654109   5.311508   5.918845
    23  Fe   3.305987   2.949896   3.934928   3.330438   2.018262
    24  O    2.904940   3.252032   4.339146   2.912112   2.955383
    25  C    5.143749   6.029849   7.052352   3.853300   5.119707
    26  H    6.119676   7.056916   8.064677   4.608557   5.973255
    27  C    3.961483   4.731772   5.459106   5.041750   6.024392
    28  H    4.721049   5.476781   6.061183   6.011167   7.071257
    29  O    2.698609   3.930381   4.473855   6.700040   6.684138
    30  H    2.179066   3.325729   3.700423   7.039123   6.762842
    31  H    3.114180   4.350655   4.828706   6.991417   7.204345
                   16         17         18         19         20
    16  C    0.000000
    17  H    1.103037   0.000000
    18  Fe   3.016605   3.981614   0.000000
    19  O    3.894847   4.608223   2.015844   0.000000
    20  Fe   4.950822   5.966843   3.255562   3.467364   0.000000
    21  O    5.055643   5.892251   3.298833   2.255522   2.039354
    22  O    6.027140   7.081785   3.411805   3.758661   2.071097
    23  Fe   2.963856   3.944162   3.236517   4.617239   3.330565
    24  O    3.241619   4.323511   1.882500   3.000765   1.912054
    25  C    4.688548   5.410154   2.945128   1.255576   3.039503
    26  H    5.438704   6.016386   3.931428   1.998611   3.995451
    27  C    5.934809   6.956015   3.013735   3.510869   3.021062
    28  H    6.952391   7.957472   3.981833   4.394450   4.001585
    29  O    7.071235   8.051040   5.304400   5.136577   2.170651
    30  H    7.300516   8.305860   5.669683   5.794804   2.500754
    31  H    7.500153   8.507097   5.389323   5.205649   2.578186
                   21         22         23         24         25
    21  O    0.000000
    22  O    2.885984   0.000000
    23  Fe   4.615223   4.582222   0.000000
    24  O    2.930391   2.975899   1.877604   0.000000
    25  C    1.251569   3.543498   4.971865   3.274634   0.000000
    26  H    1.999682   4.432558   5.997352   4.357889   1.103329
    27  C    3.406590   1.255901   4.922117   3.279513   3.641958
    28  H    4.309165   2.002625   5.937950   4.364109   4.504218
    29  O    3.095841   2.795874   5.243316   4.066083   4.319513
    30  H    3.877800   3.144119   5.128564   4.237537   5.093639
    31  H    3.306123   2.411421   5.745884   4.402219   4.426849
                   26         27         28         29         30
    26  H    0.000000
    27  C    4.503367   0.000000
    28  H    5.235430   1.104141   0.000000
    29  O    4.945909   4.027407   4.626812   0.000000
    30  H    5.804740   4.397858   4.969621   0.968723   0.000000
    31  H    5.021830   3.582922   3.991419   0.966690   1.532011
                   31
    31  H    0.000000
 Symmetry turned off by external request.
 Stoichiometry    C6H8Fe3O14(15)
 Framework group  C1[X(C6H8Fe3O14)]
 Deg. of freedom    87
 Full point group                 C1      NOp   1
 Rotational constants (GHZ):           0.2628796           0.2324965           0.1827169
 Leave Link  202 at Fri Jan 27 16:06:04 2023, MaxMem= 14763950080 cpu:               0.1 elap:               0.1
 (Enter /software/commercial/gaussian/g16/AVX2/g16/l301.exe)
 General basis read from cards:  (5D, 7F)
 Centers:       4      8     13     17     26     28     30     31
 S 3 1.00
     Exponent=  3.4061341000D+01 Coefficients=  6.0251978000D-03
     Exponent=  5.1235746000D+00 Coefficients=  4.5021094000D-02
     Exponent=  1.1646626000D+00 Coefficients=  2.0189726000D-01
 S 1 1.00
     Exponent=  3.2723041000D-01 Coefficients=  1.0000000000D+00
 S 1 1.00
     Exponent=  1.0307241000D-01 Coefficients=  1.0000000000D+00
 P 1 1.00
     Exponent=  8.0000000000D-01 Coefficients=  1.0000000000D+00
 ****
 Centers:       1      2      5      6      9     10     11     14     15     19
 Centers:      21     22     24     29
 S 6 1.00
     Exponent=  2.7032382631D+04 Coefficients=  2.1726302465D-04
     Exponent=  4.0523871392D+03 Coefficients=  1.6838662199D-03
     Exponent=  9.2232722710D+02 Coefficients=  8.7395616265D-03
     Exponent=  2.6124070989D+02 Coefficients=  3.5239968808D-02
     Exponent=  8.5354641351D+01 Coefficients=  1.1153519115D-01
     Exponent=  3.1035035245D+01 Coefficients=  2.5588953961D-01
 S 2 1.00
     Exponent=  1.2260860728D+01 Coefficients=  3.9768730901D-01
     Exponent=  4.9987076005D+00 Coefficients=  2.4627849430D-01
 S 1 1.00
     Exponent=  1.1703108158D+00 Coefficients=  1.0000000000D+00
 S 1 1.00
     Exponent=  4.6474740994D-01 Coefficients=  1.0000000000D+00
 S 1 1.00
     Exponent=  1.8504536357D-01 Coefficients=  1.0000000000D+00
 P 4 1.00
     Exponent=  6.3274954801D+01 Coefficients=  6.0685103418D-03
     Exponent=  1.4627049379D+01 Coefficients=  4.1912575824D-02
     Exponent=  4.4501223456D+00 Coefficients=  1.6153841088D-01
     Exponent=  1.5275799647D+00 Coefficients=  3.5706951311D-01
 P 1 1.00
     Exponent=  5.2935117943D-01 Coefficients=  4.4794207502D-01
 P 1 1.00
     Exponent=  1.7478421270D-01 Coefficients=  2.4446069663D-01
 D 1 1.00
     Exponent=  2.3140000000D+00 Coefficients=  1.0000000000D+00
 D 1 1.00
     Exponent=  6.4500000000D-01 Coefficients=  1.0000000000D+00
 F 1 1.00
     Exponent=  1.4280000000D+00 Coefficients=  1.0000000000D+00
 ****
 Centers:       3      7     12     16     25     27
 S 6 1.00
     Exponent=  1.3575349682D+04 Coefficients=  2.2245814352D-04
     Exponent=  2.0352333680D+03 Coefficients=  1.7232738252D-03
     Exponent=  4.6322562359D+02 Coefficients=  8.9255715314D-03
     Exponent=  1.3120019598D+02 Coefficients=  3.5727984502D-02
     Exponent=  4.2853015891D+01 Coefficients=  1.1076259931D-01
     Exponent=  1.5584185766D+01 Coefficients=  2.4295627626D-01
 S 2 1.00
     Exponent=  6.2067138508D+00 Coefficients=  4.1440263448D-01
     Exponent=  2.5764896527D+00 Coefficients=  2.3744968655D-01
 S 1 1.00
     Exponent=  5.7696339419D-01 Coefficients=  1.0000000000D+00
 S 1 1.00
     Exponent=  2.2972831358D-01 Coefficients=  1.0000000000D+00
 S 1 1.00
     Exponent=  9.5164440028D-02 Coefficients=  1.0000000000D+00
 P 4 1.00
     Exponent=  3.4697232244D+01 Coefficients=  5.3333657805D-03
     Exponent=  7.9582622826D+00 Coefficients=  3.5864109092D-02
     Exponent=  2.3780826883D+00 Coefficients=  1.4215873329D-01
     Exponent=  8.1433208183D-01 Coefficients=  3.4270471845D-01
 P 1 1.00
     Exponent=  2.8887547253D-01 Coefficients=  4.6445822433D-01
 P 1 1.00
     Exponent=  1.0056823671D-01 Coefficients=  2.4955789874D-01
 D 1 1.00
     Exponent=  1.0970000000D+00 Coefficients=  1.0000000000D+00
 D 1 1.00
     Exponent=  3.1800000000D-01 Coefficients=  1.0000000000D+00
 F 1 1.00
     Exponent=  7.6100000000D-01 Coefficients=  1.0000000000D+00
 ****
 Centers:      18     20     23
 S 8 1.00
     Exponent=  3.0078484637D+05 Coefficients=  2.2806273096D-04
     Exponent=  4.5088970557D+04 Coefficients=  1.7681788761D-03
     Exponent=  1.0262516317D+04 Coefficients=  9.1927083490D-03
     Exponent=  2.9052897293D+03 Coefficients=  3.7355495807D-02
     Exponent=  9.4611487137D+02 Coefficients=  1.2151108426D-01
     Exponent=  3.3987832894D+02 Coefficients=  2.8818881468D-01
     Exponent=  1.3194425588D+02 Coefficients=  4.1126612677D-01
     Exponent=  5.2111494077D+01 Coefficients=  2.1518583573D-01
 S 4 1.00
     Exponent=  3.2948839267D+02 Coefficients= -2.4745216477D-02
     Exponent=  1.0192332739D+02 Coefficients= -1.1683089050D-01
     Exponent=  1.6240462745D+01 Coefficients=  5.5293621136D-01
     Exponent=  6.8840675801D+00 Coefficients=  5.3601640182D-01
 S 2 1.00
     Exponent=  1.0470693782D+01 Coefficients= -2.2912708577D-01
     Exponent=  1.7360039648D+00 Coefficients=  7.1159319984D-01
 S 1 1.00
     Exponent=  7.2577288979D-01 Coefficients=  1.0000000000D+00
 S 1 1.00
     Exponent=  1.1595528203D-01 Coefficients=  1.0000000000D+00
 S 1 1.00
     Exponent=  4.1968227746D-02 Coefficients=  1.0000000000D+00
 P 6 1.00
     Exponent=  1.5853959970D+03 Coefficients=  2.3793960179D-03
     Exponent=  3.7538006499D+02 Coefficients=  1.9253154755D-02
     Exponent=  1.2031816501D+02 Coefficients=  9.0021836536D-02
     Exponent=  4.4788749031D+01 Coefficients=  2.5798172356D-01
     Exponent=  1.7829278584D+01 Coefficients=  4.1492649744D-01
     Exponent=  7.2247153786D+00 Coefficients=  2.4207474784D-01
 P 3 1.00
     Exponent=  2.8143219756D+01 Coefficients= -2.9041755152D-02
     Exponent=  3.8743241412D+00 Coefficients=  5.5312260343D-01
     Exponent=  1.5410752281D+00 Coefficients=  9.6771136842D-01
 P 1 1.00
     Exponent=  5.8285615250D-01 Coefficients=  1.0000000000D+00
 P 1 1.00
     Exponent=  1.3491500000D-01 Coefficients=  1.0000000000D+00
 D 4 1.00
     Exponent=  6.1996675034D+01 Coefficients=  1.1971972255D-02
     Exponent=  1.7873732552D+01 Coefficients=  7.3210135410D-02
     Exponent=  6.2744782934D+00 Coefficients=  2.3103094314D-01
     Exponent=  2.3552337175D+00 Coefficients=  3.9910706494D-01
 D 1 1.00
     Exponent=  8.5432239901D-01 Coefficients=  4.1391589765D-01
 D 1 1.00
     Exponent=  2.7869254413D-01 Coefficients=  2.1909269782D-01
 D 1 1.00
     Exponent=  9.1000000000D-02 Coefficients=  1.0000000000D+00
 F 1 1.00
     Exponent=  1.5980000000D+00 Coefficients=  1.0000000000D+00
 ****
 Ernie: Thresh=  0.10000D-02 Tol=  0.10000D-05 Strict=F.
   803 basis functions,  1390 primitive gaussians,   924 cartesian basis functions
   124 alpha electrons      110 beta electrons
       nuclear repulsion energy      4129.4256045979 Hartrees.
 IExCor= 4134 DFT=T Ex+Corr=M06L ExCW=0 ScaHFX=  0.000000
 ScaDFX=  1.000000  1.000000  1.000000  1.000000 ScalE2=  1.000000  1.000000
 IRadAn=      5 IRanWt=     -1 IRanGd=            0 ICorTp=0 IEmpDi=  4
 NAtoms=   31 NActive=   31 NUniq=   31 SFac= 1.00D+00 NAtFMM=   60 NAOKFM=F Big=F
 Integral buffers will be    131072 words long.
 Raffenetti 2 integral format.
 Two-electron integral symmetry is turned off.
 Leave Link  301 at Fri Jan 27 16:06:05 2023, MaxMem= 14763950080 cpu:               0.1 elap:               0.1
 (Enter /software/commercial/gaussian/g16/AVX2/g16/l302.exe)
 NPDir=0 NMtPBC=     1 NCelOv=     1 NCel=       1 NClECP=     1 NCelD=      1
         NCelK=      1 NCelE2=     1 NClLst=     1 CellRange=     0.0.
 One-electron integrals computed using PRISM.
 NBasis=   803 RedAO= T EigKep=  5.34D-04  NBF=   803
 NBsUse=   803 1.00D-06 EigRej= -1.00D+00 NBFU=   803
 Precomputing XC quadrature grid using
 IXCGrd= 4 IRadAn=           5 IRanWt=          -1 IRanGd=           0 AccXCQ= 0.00D+00.
 Generated NRdTot=       0 NPtTot=           0 NUsed=           0 NTot=          32
 NSgBfM=   912   912   912   912   912 MxSgAt=    31 MxSgA2=    31.
 Leave Link  302 at Fri Jan 27 16:06:06 2023, MaxMem= 14763950080 cpu:               2.2 elap:               1.4
 (Enter /software/commercial/gaussian/g16/AVX2/g16/l303.exe)
 DipDrv:  MaxL=1.
 Leave Link  303 at Fri Jan 27 16:06:07 2023, MaxMem= 14763950080 cpu:               0.2 elap:               0.2
 (Enter /software/commercial/gaussian/g16/AVX2/g16/l401.exe)
 ExpMin= 4.20D-02 ExpMax= 3.01D+05 ExpMxC= 2.91D+03 IAcc=3 IRadAn=         5 AccDes= 0.00D+00
 Harris functional with IExCor= 1009 and IRadAn=       5 diagonalized for initial guess.
 HarFok:  IExCor= 1009 AccDes= 0.00D+00 IRadAn=         5 IDoV= 1 UseB2=F ITyADJ=14
 ICtDFT=  3500011 ScaDFX=  1.000000  1.000000  1.000000  1.000000
 FoFCou: FMM=F IPFlag=           0 FMFlag=      100000 FMFlg1=           0
         NFxFlg=           0 DoJE=T BraDBF=F KetDBF=T FulRan=T
         wScrn=  0.000000 ICntrl=       500 IOpCl=  0 I1Cent=   200000004 NGrid=           0
         NMat0=    1 NMatS0=      1 NMatT0=    0 NMatD0=    1 NMtDS0=    0 NMtDT0=    0
 Symmetry not used in FoFCou.
 Harris En= -5076.36488754402    
 JPrj=0 DoOrth=F DoCkMO=F.
 Initial guess <Sx>= 0.0000 <Sy>= 0.0000 <Sz>= 7.0000 <S**2>=56.0000 S= 7.0000
 Leave Link  401 at Fri Jan 27 16:06:21 2023, MaxMem= 14763950080 cpu:              26.4 elap:              13.5
 (Enter /software/commercial/gaussian/g16/AVX2/g16/l502.exe)
 Two-electron integral symmetry not used.
 UHF open shell SCF:
 Using DIIS extrapolation, IDIIS=  1040.
 NGot= 14763950080 LenX= 14762230462 LenY= 14761375762
 Requested convergence on RMS density matrix=1.00D-08 within 150 cycles.
 Requested convergence on MAX density matrix=1.00D-06.
 Requested convergence on             energy=1.00D-06.
 No special actions if energy rises.
 Fock matrices will be formed incrementally for  20 cycles.

 Cycle   1  Pass 1  IDiag  1:
 FoFJK:  IHMeth= 1 ICntrl=     500 DoSepK=F KAlg= 0 I1Cent=           0 FoldK=F
 IRaf= 800000000 NMat=       1 IRICut=       1 DoRegI=T DoRafI=F ISym2E= 0 IDoP0=0 IntGTp=1.
 FoFCou: FMM=F IPFlag=           0 FMFlag=      100000 FMFlg1=           0
         NFxFlg=           0 DoJE=T BraDBF=F KetDBF=F FulRan=T
         wScrn=  0.000000 ICntrl=       500 IOpCl=  0 I1Cent=           0 NGrid=           0
         NMat0=    1 NMatS0=      1 NMatT0=    0 NMatD0=    1 NMtDS0=    0 NMtDT0=    0
 Symmetry not used in FoFCou.
 E= -5077.52804141858    
 DIIS: error= 4.00D-02 at cycle   1 NSaved=   1.
 NSaved= 1 IEnMin= 1 EnMin= -5077.52804141858     IErMin= 1 ErrMin= 4.00D-02
 ErrMax= 4.00D-02  0.00D+00 EMaxC= 1.00D-01 BMatC= 8.40D+00 BMatP= 8.40D+00
 IDIUse=3 WtCom= 6.00D-01 WtEn= 4.00D-01
 Coeff-Com:  0.100D+01
 Coeff-En:   0.100D+01
 Coeff:      0.100D+01
 Gap=     0.447 Goal=   None    Shift=    0.000
 Gap=     0.011 Goal=   None    Shift=    0.000
 GapD=    0.011 DampG=0.250 DampE=0.250 DampFc=0.1250 IDamp=-1.
 Damping current iteration by 1.25D-01
 RMSDP=3.40D-03 MaxDP=5.00D-01              OVMax= 8.78D-01

 Cycle   2  Pass 1  IDiag  1:
 RMSU=  4.24D-04    CP:  9.97D-01
 E= -5077.75162914421     Delta-E=       -0.223587725628 Rises=F Damp=T
 DIIS: error= 2.12D-02 at cycle   2 NSaved=   2.
 NSaved= 2 IEnMin= 2 EnMin= -5077.75162914421     IErMin= 2 ErrMin= 2.12D-02
 ErrMax= 2.12D-02  0.00D+00 EMaxC= 1.00D-01 BMatC= 2.12D+00 BMatP= 8.40D+00
 IDIUse=3 WtCom= 7.88D-01 WtEn= 2.12D-01
 Coeff-Com: -0.370D+00 0.137D+01
 Coeff-En:   0.265D+00 0.735D+00
 Coeff:     -0.235D+00 0.124D+01
 Gap=     0.142 Goal=   None    Shift=    0.000
 Gap=     0.020 Goal=   None    Shift=    0.000
 RMSDP=1.44D-03 MaxDP=1.19D-01 DE=-2.24D-01 OVMax= 9.88D-01

 Cycle   3  Pass 1  IDiag  1:
 RMSU=  1.44D-03    CP:  9.94D-01  9.58D-01
 E= -5077.35882242509     Delta-E=        0.392806719121 Rises=F Damp=F
 DIIS: error= 4.29D-02 at cycle   3 NSaved=   3.
 NSaved= 3 IEnMin= 2 EnMin= -5077.75162914421     IErMin= 2 ErrMin= 2.12D-02
 ErrMax= 4.29D-02  0.00D+00 EMaxC= 1.00D-01 BMatC= 6.60D+00 BMatP= 2.12D+00
 IDIUse=2 WtCom= 0.00D+00 WtEn= 1.00D+00
 Coeff-En:   0.000D+00 0.644D+00 0.356D+00
 Coeff:      0.000D+00 0.644D+00 0.356D+00
 Gap=     0.306 Goal=   None    Shift=    0.000
 Gap=     0.048 Goal=   None    Shift=    0.000
 RMSDP=2.43D-03 MaxDP=3.47D-01 DE= 3.93D-01 OVMax= 8.64D-01

 Cycle   4  Pass 1  IDiag  1:
 RMSU=  1.46D-03    CP:  9.89D-01  3.00D+00 -4.60D-02
 E= -5070.40396441003     Delta-E=        6.954858015059 Rises=F Damp=F
 DIIS: error= 2.45D-01 at cycle   4 NSaved=   4.
 NSaved= 4 IEnMin= 2 EnMin= -5077.75162914421     IErMin= 2 ErrMin= 2.12D-02
 ErrMax= 2.45D-01  0.00D+00 EMaxC= 1.00D-01 BMatC= 5.73D+01 BMatP= 2.12D+00
 IDIUse=2 WtCom= 0.00D+00 WtEn= 1.00D+00
 EnCoef did   100 forward-backward iterations
 Coeff-En:   0.382D+00 0.224D-01 0.421D+00 0.175D+00
 Coeff:      0.382D+00 0.224D-01 0.421D+00 0.175D+00
 Gap=     0.224 Goal=   None    Shift=    0.000
 Gap=     0.023 Goal=   None    Shift=    0.000
 RMSDP=1.68D-03 MaxDP=3.40D-01 DE= 6.95D+00 OVMax= 8.09D-01

 Cycle   5  Pass 1  IDiag  1:
 RMSU=  9.01D-04    CP:  9.99D-01  1.70D+00  2.46D-01  2.97D-01
 E= -5078.02145915564     Delta-E=       -7.617494745611 Rises=F Damp=F
 DIIS: error= 3.76D-02 at cycle   5 NSaved=   5.
 NSaved= 5 IEnMin= 5 EnMin= -5078.02145915564     IErMin= 2 ErrMin= 2.12D-02
 ErrMax= 3.76D-02  0.00D+00 EMaxC= 1.00D-01 BMatC= 3.40D+00 BMatP= 2.12D+00
 IDIUse=2 WtCom= 0.00D+00 WtEn= 1.00D+00
 EnCoef did     3 forward-backward iterations
 Coeff-En:   0.185D+00 0.000D+00 0.208D+00 0.655D-04 0.607D+00
 Coeff:      0.185D+00 0.000D+00 0.208D+00 0.655D-04 0.607D+00
 Gap=     0.350 Goal=   None    Shift=    0.000
 Gap=     0.041 Goal=   None    Shift=    0.000
 RMSDP=2.35D-03 MaxDP=3.86D-01 DE=-7.62D+00 OVMax= 9.37D-01

 Cycle   6  Pass 1  IDiag  1:
 RMSU=  2.07D-03    CP:  9.85D-01  2.59D+00  1.69D-01  3.38D-01 -1.47D-01
 E= -5064.48551357925     Delta-E=       13.535945576397 Rises=F Damp=F
 DIIS: error= 1.33D-01 at cycle   6 NSaved=   6.
 NSaved= 6 IEnMin= 5 EnMin= -5078.02145915564     IErMin= 2 ErrMin= 2.12D-02
 ErrMax= 1.33D-01  0.00D+00 EMaxC= 1.00D-01 BMatC= 6.49D+01 BMatP= 2.12D+00
 IDIUse=2 WtCom= 0.00D+00 WtEn= 1.00D+00
 EnCoef did     6 forward-backward iterations
 Coeff-En:   0.117D+00 0.000D+00 0.208D+00 0.000D+00 0.618D+00 0.575D-01
 Coeff:      0.117D+00 0.000D+00 0.208D+00 0.000D+00 0.618D+00 0.575D-01
 Gap=     0.094 Goal=   None    Shift=    0.000
 Gap=     0.005 Goal=   None    Shift=    0.000
 RMSDP=1.99D-03 MaxDP=3.55D-01 DE= 1.35D+01 OVMax= 9.98D-01

 Cycle   7  Pass 1  IDiag  1:
 RMSU=  8.02D-04    CP:  9.98D-01  1.18D+00  2.94D-01  2.33D-01  3.18D-01
                    CP:  2.04D-01
 E= -5077.71838573103     Delta-E=      -13.232872151781 Rises=F Damp=F
 DIIS: error= 4.16D-02 at cycle   7 NSaved=   7.
 NSaved= 7 IEnMin= 5 EnMin= -5078.02145915564     IErMin= 2 ErrMin= 2.12D-02
 ErrMax= 4.16D-02  0.00D+00 EMaxC= 1.00D-01 BMatC= 4.75D+00 BMatP= 2.12D+00
 IDIUse=2 WtCom= 0.00D+00 WtEn= 1.00D+00
 EnCoef did     3 forward-backward iterations
 Coeff-En:   0.000D+00 0.000D+00 0.724D-01 0.000D+00 0.539D+00 0.000D+00
 Coeff-En:   0.389D+00
 Coeff:      0.000D+00 0.000D+00 0.724D-01 0.000D+00 0.539D+00 0.000D+00
 Coeff:      0.389D+00
 Gap=     0.124 Goal=   None    Shift=    0.000
 Gap=     0.016 Goal=   None    Shift=    0.000
 RMSDP=9.64D-04 MaxDP=2.64D-01 DE=-1.32D+01 OVMax= 9.80D-01

 Cycle   8  Pass 1  IDiag  1:
 RMSU=  6.27D-04    CP:  9.97D-01  1.09D+00  4.23D-01  1.48D-01  4.79D-01
                    CP:  5.64D-02  2.41D-01
 E= -5078.08767545565     Delta-E=       -0.369289724626 Rises=F Damp=F
 DIIS: error= 3.03D-02 at cycle   8 NSaved=   8.
 NSaved= 8 IEnMin= 8 EnMin= -5078.08767545565     IErMin= 2 ErrMin= 2.12D-02
 ErrMax= 3.03D-02  0.00D+00 EMaxC= 1.00D-01 BMatC= 2.47D+00 BMatP= 2.12D+00
 IDIUse=2 WtCom= 0.00D+00 WtEn= 1.00D+00
 EnCoef did     3 forward-backward iterations
 Coeff-En:   0.000D+00 0.000D+00 0.000D+00 0.000D+00 0.434D+00 0.000D+00
 Coeff-En:   0.326D+00 0.240D+00
 Coeff:      0.000D+00 0.000D+00 0.000D+00 0.000D+00 0.434D+00 0.000D+00
 Coeff:      0.326D+00 0.240D+00
 Gap=     0.185 Goal=   None    Shift=    0.000
 Gap=     0.015 Goal=   None    Shift=    0.000
 RMSDP=8.72D-04 MaxDP=2.17D-01 DE=-3.69D-01 OVMax= 9.61D-01

 Cycle   9  Pass 1  IDiag  1:
 RMSU=  5.21D-04    CP:  9.97D-01  1.27D+00  3.96D-01  1.63D-01  6.85D-01
                    CP:  4.37D-02  1.47D-01 -6.02D-02
 E= -5078.11611347517     Delta-E=       -0.028438019519 Rises=F Damp=F
 DIIS: error= 2.97D-02 at cycle   9 NSaved=   9.
 NSaved= 9 IEnMin= 9 EnMin= -5078.11611347517     IErMin= 2 ErrMin= 2.12D-02
 ErrMax= 2.97D-02  0.00D+00 EMaxC= 1.00D-01 BMatC= 2.36D+00 BMatP= 2.12D+00
 IDIUse=2 WtCom= 0.00D+00 WtEn= 1.00D+00
 EnCoef did    10 forward-backward iterations
 Coeff-En:   0.000D+00 0.000D+00 0.000D+00 0.000D+00 0.278D+00 0.000D+00
 Coeff-En:   0.274D+00 0.240D+00 0.209D+00
 Coeff:      0.000D+00 0.000D+00 0.000D+00 0.000D+00 0.278D+00 0.000D+00
 Coeff:      0.274D+00 0.240D+00 0.209D+00
 Gap=     0.217 Goal=   None    Shift=    0.000
 Gap=     0.010 Goal=   None    Shift=    0.000
 RMSDP=8.00D-04 MaxDP=2.03D-01 DE=-2.84D-02 OVMax= 9.04D-01

 Cycle  10  Pass 1  IDiag  1:
 RMSU=  3.79D-04    CP:  9.99D-01  1.45D+00  2.85D-01  2.48D-01  5.10D-01
                    CP:  9.74D-02  6.08D-01  1.42D-01  2.48D-02
 E= -5078.38832824570     Delta-E=       -0.272214770528 Rises=F Damp=F
 DIIS: error= 2.21D-02 at cycle  10 NSaved=  10.
 NSaved=10 IEnMin=10 EnMin= -5078.38832824570     IErMin= 2 ErrMin= 2.12D-02
 ErrMax= 2.21D-02  0.00D+00 EMaxC= 1.00D-01 BMatC= 8.67D-01 BMatP= 2.12D+00
 IDIUse=3 WtCom= 7.79D-01 WtEn= 2.21D-01
 EnCoef did     5 forward-backward iterations
 Coeff-Com: -0.369D-01 0.704D-01-0.300D-01-0.117D-01 0.980D-01-0.998D-03
 Coeff-Com:  0.133D-01 0.237D+00 0.214D+00 0.448D+00
 Coeff-En:   0.000D+00 0.000D+00 0.000D+00 0.000D+00 0.896D-01 0.000D+00
 Coeff-En:   0.000D+00 0.199D+00 0.211D+00 0.500D+00
 Coeff:     -0.287D-01 0.548D-01-0.233D-01-0.909D-02 0.961D-01-0.777D-03
 Coeff:      0.103D-01 0.228D+00 0.213D+00 0.459D+00
 Gap=     0.197 Goal=   None    Shift=    0.000
 Gap=     0.012 Goal=   None    Shift=    0.000
 RMSDP=6.18D-04 MaxDP=1.72D-01 DE=-2.72D-01 OVMax= 7.64D-01

 Cycle  11  Pass 1  IDiag  1:
 RMSU=  2.56D-04    CP:  9.99D-01  1.29D+00  3.04D-01  2.30D-01  7.62D-01
                    CP:  4.54D-02  1.72D-01  1.45D-01  3.12D-01  1.55D-01
 E= -5078.46982478894     Delta-E=       -0.081496543236 Rises=F Damp=F
 DIIS: error= 9.26D-03 at cycle  11 NSaved=  11.
 NSaved=11 IEnMin=11 EnMin= -5078.46982478894     IErMin=11 ErrMin= 9.26D-03
 ErrMax= 9.26D-03  0.00D+00 EMaxC= 1.00D-01 BMatC= 3.55D-01 BMatP= 8.67D-01
 IDIUse=3 WtCom= 9.07D-01 WtEn= 9.26D-02
 EnCoef did     3 forward-backward iterations
 Coeff-Com:  0.199D-01-0.958D-02-0.105D-02-0.409D-02-0.808D-02 0.436D-02
 Coeff-Com: -0.828D-01 0.101D+00 0.270D-01 0.493D+00 0.461D+00
 Coeff-En:   0.000D+00 0.000D+00 0.000D+00 0.000D+00 0.000D+00 0.000D+00
 Coeff-En:   0.000D+00 0.458D-01 0.000D+00 0.385D+00 0.570D+00
 Coeff:      0.181D-01-0.869D-02-0.953D-03-0.371D-02-0.733D-02 0.395D-02
 Coeff:     -0.752D-01 0.956D-01 0.245D-01 0.483D+00 0.471D+00
 Gap=     0.183 Goal=   None    Shift=    0.000
 Gap=     0.014 Goal=   None    Shift=    0.000
 RMSDP=3.33D-04 MaxDP=8.14D-02 DE=-8.15D-02 OVMax= 4.04D-01

 Cycle  12  Pass 1  IDiag  1:
 RMSU=  1.30D-04    CP:  1.00D+00  1.29D+00  3.08D-01  2.22D-01  6.19D-01
                    CP:  5.16D-02  2.73D-01  3.37D-01  9.14D-02  6.58D-01
                    CP:  6.77D-01
 E= -5078.53268632067     Delta-E=       -0.062861531733 Rises=F Damp=F
 DIIS: error= 4.39D-03 at cycle  12 NSaved=  12.
 NSaved=12 IEnMin=12 EnMin= -5078.53268632067     IErMin=12 ErrMin= 4.39D-03
 ErrMax= 4.39D-03  0.00D+00 EMaxC= 1.00D-01 BMatC= 5.47D-02 BMatP= 3.55D-01
 IDIUse=3 WtCom= 9.56D-01 WtEn= 4.39D-02
 EnCoef did   100 forward-backward iterations
 Coeff-Com:  0.222D-01-0.245D-01 0.335D-02 0.116D-02-0.342D-01 0.797D-03
 Coeff-Com: -0.256D-01-0.417D-01 0.216D-01 0.188D+00 0.280D+00 0.609D+00
 Coeff-En:   0.000D+00 0.000D+00 0.000D+00 0.000D+00 0.000D+00 0.000D+00
 Coeff-En:   0.000D+00 0.000D+00 0.407D-02 0.159D+00 0.255D+00 0.582D+00
 Coeff:      0.212D-01-0.235D-01 0.320D-02 0.111D-02-0.327D-01 0.762D-03
 Coeff:     -0.245D-01-0.398D-01 0.208D-01 0.187D+00 0.279D+00 0.607D+00
 Gap=     0.179 Goal=   None    Shift=    0.000
 Gap=     0.014 Goal=   None    Shift=    0.000
 RMSDP=1.96D-04 MaxDP=5.43D-02 DE=-6.29D-02 OVMax= 2.50D-01

 Cycle  13  Pass 1  IDiag  1:
 RMSU=  7.85D-05    CP:  1.00D+00  1.30D+00  2.94D-01  2.30D-01  5.69D-01
                    CP:  6.75D-02  3.93D-01  1.90D-01  1.63D-01  8.42D-01
                    CP:  5.97D-01  4.94D-01
 E= -5078.52882319779     Delta-E=        0.003863122878 Rises=F Damp=F
 DIIS: error= 6.48D-03 at cycle  13 NSaved=  13.
 NSaved=13 IEnMin=12 EnMin= -5078.53268632067     IErMin=12 ErrMin= 4.39D-03
 ErrMax= 6.48D-03  0.00D+00 EMaxC= 1.00D-01 BMatC= 7.46D-02 BMatP= 5.47D-02
 IDIUse=3 WtCom= 9.56D-01 WtEn= 4.39D-02
 EnCoef did     2 forward-backward iterations
 Coeff-Com:  0.247D-02-0.269D-02 0.842D-02 0.258D-03-0.298D-02-0.169D-03
 Coeff-Com: -0.858D-02-0.325D-01 0.368D-02-0.362D-03 0.156D+00 0.484D+00
 Coeff-Com:  0.393D+00
 Coeff-En:   0.000D+00 0.000D+00 0.000D+00 0.000D+00 0.000D+00 0.000D+00
 Coeff-En:   0.000D+00 0.000D+00 0.000D+00 0.000D+00 0.150D+00 0.411D+00
 Coeff-En:   0.439D+00
 Coeff:      0.236D-02-0.258D-02 0.805D-02 0.247D-03-0.285D-02-0.162D-03
 Coeff:     -0.820D-02-0.311D-01 0.352D-02-0.346D-03 0.155D+00 0.481D+00
 Coeff:      0.395D+00
 Gap=     0.178 Goal=   None    Shift=    0.000
 Gap=     0.015 Goal=   None    Shift=    0.000
 RMSDP=1.03D-04 MaxDP=3.12D-02 DE= 3.86D-03 OVMax= 1.33D-01

 Cycle  14  Pass 1  IDiag  1:
 RMSU=  2.39D-05    CP:  1.00D+00  1.30D+00  3.00D-01  2.27D-01  6.08D-01
                    CP:  5.72D-02  3.16D-01  2.28D-01  1.56D-01  7.39D-01
                    CP:  7.02D-01  7.31D-01  6.40D-01
 E= -5078.54217718540     Delta-E=       -0.013353987608 Rises=F Damp=F
 DIIS: error= 1.20D-03 at cycle  14 NSaved=  14.
 NSaved=14 IEnMin=14 EnMin= -5078.54217718540     IErMin=14 ErrMin= 1.20D-03
 ErrMax= 1.20D-03  0.00D+00 EMaxC= 1.00D-01 BMatC= 4.29D-03 BMatP= 5.47D-02
 IDIUse=3 WtCom= 9.88D-01 WtEn= 1.20D-02
 EnCoef did     2 forward-backward iterations
 Coeff-Com: -0.718D-03 0.657D-03 0.532D-02-0.688D-04 0.240D-03 0.553D-04
 Coeff-Com: -0.276D-02-0.187D-01 0.362D-02-0.254D-01 0.971D-01 0.277D+00
 Coeff-Com:  0.220D+00 0.444D+00
 Coeff-En:   0.000D+00 0.000D+00 0.000D+00 0.000D+00 0.000D+00 0.000D+00
 Coeff-En:   0.000D+00 0.000D+00 0.000D+00 0.000D+00 0.460D-01 0.480D-01
 Coeff-En:   0.000D+00 0.906D+00
 Coeff:     -0.710D-03 0.649D-03 0.525D-02-0.679D-04 0.237D-03 0.547D-04
 Coeff:     -0.273D-02-0.185D-01 0.358D-02-0.251D-01 0.965D-01 0.274D+00
 Coeff:      0.217D+00 0.450D+00
 Gap=     0.178 Goal=   None    Shift=    0.000
 Gap=     0.014 Goal=   None    Shift=    0.000
 RMSDP=3.40D-05 MaxDP=8.88D-03 DE=-1.34D-02 OVMax= 4.04D-02

 Cycle  15  Pass 1  IDiag  1:
 RMSU=  1.62D-05    CP:  1.00D+00  1.29D+00  3.02D-01  2.26D-01  6.19D-01
                    CP:  5.49D-02  2.96D-01  2.43D-01  1.51D-01  6.95D-01
                    CP:  7.33D-01  7.86D-01  5.86D-01  8.48D-01
 E= -5078.54282088991     Delta-E=       -0.000643704509 Rises=F Damp=F
 DIIS: error= 7.05D-04 at cycle  15 NSaved=  15.
 NSaved=15 IEnMin=15 EnMin= -5078.54282088991     IErMin=15 ErrMin= 7.05D-04
 ErrMax= 7.05D-04  0.00D+00 EMaxC= 1.00D-01 BMatC= 1.12D-03 BMatP= 4.29D-03
 IDIUse=3 WtCom= 9.93D-01 WtEn= 7.05D-03
 Coeff-Com:  0.644D-03-0.678D-03 0.925D-03-0.801D-04-0.197D-02 0.641D-04
 Coeff-Com:  0.783D-03-0.655D-02 0.540D-02-0.613D-02 0.346D-01-0.435D-02
 Coeff-Com: -0.211D-01 0.357D+00 0.641D+00
 Coeff-En:   0.000D+00 0.000D+00 0.000D+00 0.000D+00 0.000D+00 0.000D+00
 Coeff-En:   0.000D+00 0.000D+00 0.000D+00 0.000D+00 0.000D+00 0.000D+00
 Coeff-En:   0.000D+00 0.113D+00 0.887D+00
 Coeff:      0.639D-03-0.673D-03 0.919D-03-0.795D-04-0.195D-02 0.636D-04
 Coeff:      0.778D-03-0.650D-02 0.536D-02-0.608D-02 0.343D-01-0.432D-02
 Coeff:     -0.209D-01 0.356D+00 0.643D+00
 Gap=     0.178 Goal=   None    Shift=    0.000
 Gap=     0.014 Goal=   None    Shift=    0.000
 RMSDP=1.85D-05 MaxDP=3.86D-03 DE=-6.44D-04 OVMax= 2.13D-02

 Cycle  16  Pass 1  IDiag  1:
 RMSU=  9.76D-06    CP:  1.00D+00  1.29D+00  3.02D-01  2.26D-01  6.21D-01
                    CP:  5.50D-02  2.95D-01  2.28D-01  1.64D-01  6.84D-01
                    CP:  7.46D-01  7.84D-01  6.41D-01  1.15D+00  1.08D+00
 E= -5078.54304153754     Delta-E=       -0.000220647635 Rises=F Damp=F
 DIIS: error= 1.49D-04 at cycle  16 NSaved=  16.
 NSaved=16 IEnMin=16 EnMin= -5078.54304153754     IErMin=16 ErrMin= 1.49D-04
 ErrMax= 1.49D-04  0.00D+00 EMaxC= 1.00D-01 BMatC= 8.60D-05 BMatP= 1.12D-03
 IDIUse=3 WtCom= 9.99D-01 WtEn= 1.49D-03
 Coeff-Com:  0.630D-03-0.706D-03 0.104D-03-0.647D-04-0.417D-04-0.308D-04
 Coeff-Com:  0.644D-03-0.634D-03 0.712D-03-0.118D-02 0.758D-02-0.611D-01
 Coeff-Com: -0.449D-01 0.185D+00 0.420D+00 0.494D+00
 Coeff-En:   0.000D+00 0.000D+00 0.000D+00 0.000D+00 0.000D+00 0.000D+00
 Coeff-En:   0.000D+00 0.000D+00 0.000D+00 0.000D+00 0.000D+00 0.000D+00
 Coeff-En:   0.000D+00 0.000D+00 0.906D-02 0.991D+00
 Coeff:      0.629D-03-0.705D-03 0.104D-03-0.646D-04-0.416D-04-0.308D-04
 Coeff:      0.643D-03-0.633D-03 0.711D-03-0.117D-02 0.757D-02-0.610D-01
 Coeff:     -0.448D-01 0.185D+00 0.420D+00 0.495D+00
 Gap=     0.178 Goal=   None    Shift=    0.000
 Gap=     0.014 Goal=   None    Shift=    0.000
 RMSDP=1.08D-05 MaxDP=2.08D-03 DE=-2.21D-04 OVMax= 1.32D-02

 Cycle  17  Pass 1  IDiag  1:
 RMSU=  5.73D-06    CP:  1.00D+00  1.29D+00  3.02D-01  2.27D-01  6.24D-01
                    CP:  5.45D-02  2.91D-01  2.31D-01  1.63D-01  6.76D-01
                    CP:  7.53D-01  7.91D-01  6.40D-01  1.33D+00  1.40D+00
                    CP:  1.06D+00
 E= -5078.54303275299     Delta-E=        0.000008784553 Rises=F Damp=F
 DIIS: error= 2.86D-04 at cycle  17 NSaved=  17.
 NSaved=17 IEnMin=16 EnMin= -5078.54304153754     IErMin=16 ErrMin= 1.49D-04
 ErrMax= 2.86D-04  0.00D+00 EMaxC= 1.00D-01 BMatC= 1.55D-04 BMatP= 8.60D-05
 IDIUse=3 WtCom= 9.99D-01 WtEn= 1.49D-03
 EnCoef did     3 forward-backward iterations
 Coeff-Com:  0.708D-03-0.853D-03-0.799D-04-0.110D-04-0.117D-03-0.114D-04
 Coeff-Com:  0.161D-03-0.280D-03 0.205D-03 0.979D-03 0.774D-03-0.366D-01
 Coeff-Com: -0.118D-01 0.747D-01 0.178D+00 0.368D+00 0.427D+00
 Coeff-En:   0.000D+00 0.000D+00 0.000D+00 0.000D+00 0.000D+00 0.000D+00
 Coeff-En:   0.000D+00 0.000D+00 0.000D+00 0.000D+00 0.000D+00 0.000D+00
 Coeff-En:   0.000D+00 0.135D-02 0.000D+00 0.592D+00 0.406D+00
 Coeff:      0.707D-03-0.852D-03-0.798D-04-0.109D-04-0.117D-03-0.113D-04
 Coeff:      0.161D-03-0.279D-03 0.205D-03 0.977D-03 0.773D-03-0.365D-01
 Coeff:     -0.118D-01 0.746D-01 0.178D+00 0.368D+00 0.427D+00
 Gap=     0.178 Goal=   None    Shift=    0.000
 Gap=     0.014 Goal=   None    Shift=    0.000
 RMSDP=6.14D-06 MaxDP=9.68D-04 DE= 8.78D-06 OVMax= 7.77D-03

 Cycle  18  Pass 1  IDiag  1:
 RMSU=  2.36D-06    CP:  1.00D+00  1.29D+00  3.02D-01  2.27D-01  6.23D-01
                    CP:  5.49D-02  2.94D-01  2.29D-01  1.63D-01  6.81D-01
                    CP:  7.50D-01  7.90D-01  6.61D-01  1.42D+00  1.55D+00
                    CP:  1.30D+00  1.11D+00
 E= -5078.54306267740     Delta-E=       -0.000029924406 Rises=F Damp=F
 DIIS: error= 8.85D-05 at cycle  18 NSaved=  18.
 NSaved=18 IEnMin=18 EnMin= -5078.54306267740     IErMin=18 ErrMin= 8.85D-05
 ErrMax= 8.85D-05  0.00D+00 EMaxC= 1.00D-01 BMatC= 2.14D-05 BMatP= 8.60D-05
 IDIUse=1 WtCom= 1.00D+00 WtEn= 0.00D+00
 Coeff-Com:  0.264D-03-0.245D-03-0.325D-05-0.212D-04 0.850D-04-0.126D-04
 Coeff-Com: -0.131D-03 0.340D-03 0.313D-05 0.894D-03-0.521D-02-0.240D-02
 Coeff-Com:  0.189D-01-0.328D-01-0.795D-01 0.616D-01 0.241D+00 0.797D+00
 Coeff:      0.264D-03-0.245D-03-0.325D-05-0.212D-04 0.850D-04-0.126D-04
 Coeff:     -0.131D-03 0.340D-03 0.313D-05 0.894D-03-0.521D-02-0.240D-02
 Coeff:      0.189D-01-0.328D-01-0.795D-01 0.616D-01 0.241D+00 0.797D+00
 Gap=     0.178 Goal=   None    Shift=    0.000
 Gap=     0.013 Goal=   None    Shift=    0.000
 RMSDP=8.51D-06 MaxDP=9.89D-04 DE=-2.99D-05 OVMax= 1.11D-02

 Cycle  19  Pass 1  IDiag  1:
 RMSU=  1.64D-06    CP:  1.00D+00  1.30D+00  3.02D-01  2.27D-01  6.23D-01
                    CP:  5.51D-02  2.96D-01  2.28D-01  1.64D-01  6.81D-01
                    CP:  7.49D-01  7.97D-01  6.81D-01  1.58D+00  1.85D+00
                    CP:  1.68D+00  1.65D+00  1.72D+00
 E= -5078.54307023084     Delta-E=       -0.000007553450 Rises=F Damp=F
 DIIS: error= 2.38D-05 at cycle  19 NSaved=  19.
 NSaved=19 IEnMin=19 EnMin= -5078.54307023084     IErMin=19 ErrMin= 2.38D-05
 ErrMax= 2.38D-05  0.00D+00 EMaxC= 1.00D-01 BMatC= 4.11D-06 BMatP= 2.14D-05
 IDIUse=1 WtCom= 1.00D+00 WtEn= 0.00D+00
 Coeff-Com: -0.222D-04 0.119D-03 0.129D-03-0.368D-04 0.108D-03 0.775D-05
 Coeff-Com: -0.200D-03 0.366D-03 0.272D-04 0.203D-03-0.427D-02 0.186D-01
 Coeff-Com:  0.202D-01-0.697D-01-0.161D+00-0.169D+00-0.119D+00 0.508D+00
 Coeff-Com:  0.976D+00
 Coeff:     -0.222D-04 0.119D-03 0.129D-03-0.368D-04 0.108D-03 0.775D-05
 Coeff:     -0.200D-03 0.366D-03 0.272D-04 0.203D-03-0.427D-02 0.186D-01
 Coeff:      0.202D-01-0.697D-01-0.161D+00-0.169D+00-0.119D+00 0.508D+00
 Coeff:      0.976D+00
 Gap=     0.178 Goal=   None    Shift=    0.000
 Gap=     0.013 Goal=   None    Shift=    0.000
 RMSDP=1.15D-05 MaxDP=1.41D-03 DE=-7.55D-06 OVMax= 1.52D-02

 Cycle  20  Pass 1  IDiag  1:
 RMSU=  1.23D-06    CP:  1.00D+00  1.30D+00  3.02D-01  2.28D-01  6.24D-01
                    CP:  5.52D-02  2.96D-01  2.28D-01  1.64D-01  6.78D-01
                    CP:  7.50D-01  8.07D-01  6.99D-01  1.79D+00  2.25D+00
                    CP:  2.21D+00  2.41D+00  2.90D+00  1.96D+00
 E= -5078.54307483660     Delta-E=       -0.000004605758 Rises=F Damp=F
 DIIS: error= 1.99D-05 at cycle  20 NSaved=  20.
 NSaved=20 IEnMin=20 EnMin= -5078.54307483660     IErMin=20 ErrMin= 1.99D-05
 ErrMax= 1.99D-05  0.00D+00 EMaxC= 1.00D-01 BMatC= 2.09D-06 BMatP= 4.11D-06
 IDIUse=1 WtCom= 1.00D+00 WtEn= 0.00D+00
 Coeff-Com:  0.338D-04-0.277D-04 0.111D-03-0.102D-04 0.600D-04 0.108D-05
 Coeff-Com: -0.677D-04-0.163D-03-0.220D-04 0.278D-04 0.687D-03 0.113D-01
 Coeff-Com:  0.172D-02-0.234D-01-0.514D-01-0.125D+00-0.234D+00-0.177D+00
 Coeff-Com:  0.590D+00 0.101D+01
 Coeff:      0.338D-04-0.277D-04 0.111D-03-0.102D-04 0.600D-04 0.108D-05
 Coeff:     -0.677D-04-0.163D-03-0.220D-04 0.278D-04 0.687D-03 0.113D-01
 Coeff:      0.172D-02-0.234D-01-0.514D-01-0.125D+00-0.234D+00-0.177D+00
 Coeff:      0.590D+00 0.101D+01
 Gap=     0.178 Goal=   None    Shift=    0.000
 Gap=     0.013 Goal=   None    Shift=    0.000
 RMSDP=1.14D-05 MaxDP=1.36D-03 DE=-4.61D-06 OVMax= 1.51D-02

 Cycle  21  Pass 1  IDiag  1:
 Restarting incremental Fock formation.
 E= -5078.54307633349     Delta-E=       -0.000001496883 Rises=F Damp=F
 DIIS: error= 5.44D-05 at cycle  21 NSaved=  20.
 NSaved=20 IEnMin=20 EnMin= -5078.54307633349     IErMin=19 ErrMin= 1.99D-05
 ErrMax= 5.44D-05  0.00D+00 EMaxC= 1.00D-01 BMatC= 6.78D-06 BMatP= 2.09D-06
 IDIUse=1 WtCom= 1.00D+00 WtEn= 0.00D+00
 Coeff-Com:  0.115D-03-0.136D-03 0.901D-04-0.288D-05-0.316D-04-0.279D-05
 Coeff-Com: -0.432D-03-0.704D-04 0.131D-03 0.184D-02 0.455D-02-0.411D-03
 Coeff-Com:  0.237D-02 0.793D-03-0.375D-01-0.157D+00-0.256D+00 0.125D+00
 Coeff-Com:  0.745D+00 0.572D+00
 Coeff:      0.115D-03-0.136D-03 0.901D-04-0.288D-05-0.316D-04-0.279D-05
 Coeff:     -0.432D-03-0.704D-04 0.131D-03 0.184D-02 0.455D-02-0.411D-03
 Coeff:      0.237D-02 0.793D-03-0.375D-01-0.157D+00-0.256D+00 0.125D+00
 Coeff:      0.745D+00 0.572D+00
 Gap=     0.178 Goal=   None    Shift=    0.000
 Gap=     0.013 Goal=   None    Shift=    0.000
 RMSDP=4.66D-06 MaxDP=5.79D-04 DE=-1.50D-06 OVMax= 6.13D-03

 Cycle  22  Pass 1  IDiag  1:
 RMSU=  4.66D-06    CP:  1.00D+00
 E= -5078.54307755954     Delta-E=       -0.000001226057 Rises=F Damp=F
 DIIS: error= 3.44D-05 at cycle  22 NSaved=  20.
 NSaved=20 IEnMin=20 EnMin= -5078.54307755954     IErMin=18 ErrMin= 1.99D-05
 ErrMax= 3.44D-05  0.00D+00 EMaxC= 1.00D-01 BMatC= 3.03D-06 BMatP= 2.09D-06
 IDIUse=1 WtCom= 1.00D+00 WtEn= 0.00D+00
 Coeff-Com:  0.149D-03-0.174D-03 0.526D-04-0.736D-04 0.350D-04-0.304D-03
 Coeff-Com: -0.800D-04-0.602D-04 0.101D-02-0.192D-02 0.212D-02 0.170D-01
 Coeff-Com:  0.252D-01 0.454D-01-0.226D-01-0.849D-01-0.203D+00 0.476D-01
 Coeff-Com:  0.402D+00 0.773D+00
 Coeff:      0.149D-03-0.174D-03 0.526D-04-0.736D-04 0.350D-04-0.304D-03
 Coeff:     -0.800D-04-0.602D-04 0.101D-02-0.192D-02 0.212D-02 0.170D-01
 Coeff:      0.252D-01 0.454D-01-0.226D-01-0.849D-01-0.203D+00 0.476D-01
 Coeff:      0.402D+00 0.773D+00
 Gap=     0.178 Goal=   None    Shift=    0.000
 Gap=     0.013 Goal=   None    Shift=    0.000
 RMSDP=2.91D-06 MaxDP=3.83D-04 DE=-1.23D-06 OVMax= 3.80D-03

 Cycle  23  Pass 1  IDiag  1:
 RMSU=  8.60D-07    CP:  1.00D+00  1.60D+00
 E= -5078.54307820712     Delta-E=       -0.000000647575 Rises=F Damp=F
 DIIS: error= 1.29D-05 at cycle  23 NSaved=  20.
 NSaved=20 IEnMin=20 EnMin= -5078.54307820712     IErMin=20 ErrMin= 1.29D-05
 ErrMax= 1.29D-05  0.00D+00 EMaxC= 1.00D-01 BMatC= 7.17D-07 BMatP= 2.09D-06
 IDIUse=1 WtCom= 1.00D+00 WtEn= 0.00D+00
 Coeff-Com:  0.473D-04-0.688D-04-0.609D-04 0.592D-04-0.546D-05-0.513D-04
 Coeff-Com: -0.378D-03 0.175D-03-0.239D-02 0.224D-02 0.153D-01 0.213D-01
 Coeff-Com:  0.448D-01 0.211D-01 0.159D-01-0.161D+00-0.193D+00 0.549D-01
 Coeff-Com:  0.561D+00 0.620D+00
 Coeff:      0.473D-04-0.688D-04-0.609D-04 0.592D-04-0.546D-05-0.513D-04
 Coeff:     -0.378D-03 0.175D-03-0.239D-02 0.224D-02 0.153D-01 0.213D-01
 Coeff:      0.448D-01 0.211D-01 0.159D-01-0.161D+00-0.193D+00 0.549D-01
 Coeff:      0.561D+00 0.620D+00
 Gap=     0.178 Goal=   None    Shift=    0.000
 Gap=     0.013 Goal=   None    Shift=    0.000
 RMSDP=1.15D-06 MaxDP=1.53D-04 DE=-6.48D-07 OVMax= 1.47D-03

 Cycle  24  Pass 1  IDiag  1:
 RMSU=  4.55D-07    CP:  1.00D+00  1.80D+00  1.55D+00
 E= -5078.54307835827     Delta-E=       -0.000000151154 Rises=F Damp=F
 DIIS: error= 8.67D-06 at cycle  24 NSaved=  20.
 NSaved=20 IEnMin=20 EnMin= -5078.54307835827     IErMin=20 ErrMin= 8.67D-06
 ErrMax= 8.67D-06  0.00D+00 EMaxC= 1.00D-01 BMatC= 2.43D-07 BMatP= 7.17D-07
 IDIUse=1 WtCom= 1.00D+00 WtEn= 0.00D+00
 Coeff-Com: -0.130D-04-0.292D-04 0.370D-04 0.134D-04-0.550D-04-0.284D-03
 Coeff-Com:  0.119D-03 0.249D-03 0.142D-02 0.694D-02 0.827D-02 0.123D-01
 Coeff-Com:  0.795D-02 0.167D-01-0.413D-01-0.110D+00-0.627D-01 0.164D+00
 Coeff-Com:  0.404D+00 0.592D+00
 Coeff:     -0.130D-04-0.292D-04 0.370D-04 0.134D-04-0.550D-04-0.284D-03
 Coeff:      0.119D-03 0.249D-03 0.142D-02 0.694D-02 0.827D-02 0.123D-01
 Coeff:      0.795D-02 0.167D-01-0.413D-01-0.110D+00-0.627D-01 0.164D+00
 Coeff:      0.404D+00 0.592D+00
 Gap=     0.178 Goal=   None    Shift=    0.000
 Gap=     0.013 Goal=   None    Shift=    0.000
 RMSDP=7.36D-07 MaxDP=9.58D-05 DE=-1.51D-07 OVMax= 9.54D-04

 Cycle  25  Pass 1  IDiag  1:
 RMSU=  2.70D-07    CP:  1.00D+00  1.92D+00  1.83D+00  1.56D+00
 E= -5078.54307841556     Delta-E=       -0.000000057291 Rises=F Damp=F
 DIIS: error= 5.28D-06 at cycle  25 NSaved=  20.
 NSaved=20 IEnMin=20 EnMin= -5078.54307841556     IErMin=20 ErrMin= 5.28D-06
 ErrMax= 5.28D-06  0.00D+00 EMaxC= 1.00D-01 BMatC= 8.05D-08 BMatP= 2.43D-07
 IDIUse=1 WtCom= 1.00D+00 WtEn= 0.00D+00
 Coeff-Com:  0.411D-05 0.803D-05 0.972D-05-0.102D-04-0.530D-05-0.204D-03
 Coeff-Com:  0.112D-02 0.422D-03-0.216D-02-0.473D-02-0.106D-01-0.254D-02
 Coeff-Com:  0.148D-01 0.326D-01-0.285D-01-0.938D-01-0.977D-01 0.786D-01
 Coeff-Com:  0.378D+00 0.735D+00
 Coeff:      0.411D-05 0.803D-05 0.972D-05-0.102D-04-0.530D-05-0.204D-03
 Coeff:      0.112D-02 0.422D-03-0.216D-02-0.473D-02-0.106D-01-0.254D-02
 Coeff:      0.148D-01 0.326D-01-0.285D-01-0.938D-01-0.977D-01 0.786D-01
 Coeff:      0.378D+00 0.735D+00
 Gap=     0.178 Goal=   None    Shift=    0.000
 Gap=     0.013 Goal=   None    Shift=    0.000
 RMSDP=1.06D-06 MaxDP=1.38D-04 DE=-5.73D-08 OVMax= 1.38D-03

 Cycle  26  Pass 1  IDiag  1:
 RMSU=  1.91D-07    CP:  1.00D+00  2.13D+00  2.13D+00  2.16D+00  1.70D+00
 E= -5078.54307843557     Delta-E=       -0.000000020009 Rises=F Damp=F
 DIIS: error= 5.86D-06 at cycle  26 NSaved=  20.
 NSaved=20 IEnMin=20 EnMin= -5078.54307843557     IErMin=19 ErrMin= 5.28D-06
 ErrMax= 5.86D-06  0.00D+00 EMaxC= 1.00D-01 BMatC= 8.92D-08 BMatP= 8.05D-08
 IDIUse=1 WtCom= 1.00D+00 WtEn= 0.00D+00
 Coeff-Com:  0.174D-04 0.101D-04 0.163D-04 0.161D-04-0.262D-03 0.415D-03
 Coeff-Com:  0.386D-03-0.270D-02-0.511D-02-0.638D-02-0.219D-02 0.151D-01
 Coeff-Com:  0.274D-01-0.147D-01-0.708D-01-0.870D-01 0.215D-01 0.151D+00
 Coeff-Com:  0.399D+00 0.574D+00
 Coeff:      0.174D-04 0.101D-04 0.163D-04 0.161D-04-0.262D-03 0.415D-03
 Coeff:      0.386D-03-0.270D-02-0.511D-02-0.638D-02-0.219D-02 0.151D-01
 Coeff:      0.274D-01-0.147D-01-0.708D-01-0.870D-01 0.215D-01 0.151D+00
 Coeff:      0.399D+00 0.574D+00
 Gap=     0.178 Goal=   None    Shift=    0.000
 Gap=     0.013 Goal=   None    Shift=    0.000
 RMSDP=3.46D-07 MaxDP=3.68D-05 DE=-2.00D-08 OVMax= 4.49D-04

 Cycle  27  Pass 1  IDiag  1:
 RMSU=  1.02D-07    CP:  1.00D+00  2.17D+00  2.34D+00  2.45D+00  1.91D+00
                    CP:  1.51D+00
 E= -5078.54307844970     Delta-E=       -0.000000014126 Rises=F Damp=F
 DIIS: error= 4.50D-06 at cycle  27 NSaved=  20.
 NSaved=20 IEnMin=20 EnMin= -5078.54307844970     IErMin=20 ErrMin= 4.50D-06
 ErrMax= 4.50D-06  0.00D+00 EMaxC= 1.00D-01 BMatC= 4.89D-08 BMatP= 8.05D-08
 IDIUse=1 WtCom= 1.00D+00 WtEn= 0.00D+00
 Coeff-Com:  0.460D-05 0.185D-04 0.297D-04-0.104D-03-0.598D-03 0.271D-03
 Coeff-Com: -0.733D-03-0.139D-02 0.387D-02-0.909D-03 0.901D-02 0.804D-02
 Coeff-Com:  0.374D-02-0.199D-01-0.272D-01-0.118D-01-0.104D+00-0.252D+00
 Coeff-Com:  0.527D+00 0.867D+00
 Coeff:      0.460D-05 0.185D-04 0.297D-04-0.104D-03-0.598D-03 0.271D-03
 Coeff:     -0.733D-03-0.139D-02 0.387D-02-0.909D-03 0.901D-02 0.804D-02
 Coeff:      0.374D-02-0.199D-01-0.272D-01-0.118D-01-0.104D+00-0.252D+00
 Coeff:      0.527D+00 0.867D+00
 Gap=     0.178 Goal=   None    Shift=    0.000
 Gap=     0.013 Goal=   None    Shift=    0.000
 RMSDP=4.53D-07 MaxDP=5.17D-05 DE=-1.41D-08 OVMax= 5.94D-04

 Cycle  28  Pass 1  IDiag  1:
 RMSU=  9.58D-08    CP:  1.00D+00  2.19D+00  2.67D+00  3.00D+00  2.34D+00
                    CP:  2.22D+00  2.04D+00
 E= -5078.54307846381     Delta-E=       -0.000000014108 Rises=F Damp=F
 DIIS: error= 2.46D-06 at cycle  28 NSaved=  20.
 NSaved=20 IEnMin=20 EnMin= -5078.54307846381     IErMin=20 ErrMin= 2.46D-06
 ErrMax= 2.46D-06  0.00D+00 EMaxC= 1.00D-01 BMatC= 1.44D-08 BMatP= 4.89D-08
 IDIUse=1 WtCom= 1.00D+00 WtEn= 0.00D+00
 Coeff-Com: -0.571D-05-0.196D-04 0.227D-04 0.186D-05 0.323D-03-0.273D-03
 Coeff-Com: -0.134D-02 0.323D-03-0.510D-02 0.202D-02 0.124D-01 0.161D-01
 Coeff-Com: -0.101D-02-0.335D-02 0.262D-02-0.913D-01-0.359D+00-0.561D-01
 Coeff-Com:  0.523D+00 0.961D+00
 Coeff:     -0.571D-05-0.196D-04 0.227D-04 0.186D-05 0.323D-03-0.273D-03
 Coeff:     -0.134D-02 0.323D-03-0.510D-02 0.202D-02 0.124D-01 0.161D-01
 Coeff:     -0.101D-02-0.335D-02 0.262D-02-0.913D-01-0.359D+00-0.561D-01
 Coeff:      0.523D+00 0.961D+00
 Gap=     0.178 Goal=   None    Shift=    0.000
 Gap=     0.013 Goal=   None    Shift=    0.000
 RMSDP=3.92D-07 MaxDP=4.83D-05 DE=-1.41D-08 OVMax= 5.15D-04

 Cycle  29  Pass 1  IDiag  1:
 RMSU=  2.20D-07    CP:  1.00D+00  2.21D+00  2.93D+00  3.00D+00  2.84D+00
                    CP:  2.81D+00  2.96D+00  1.94D+00
 E= -5078.54307846878     Delta-E=       -0.000000004969 Rises=F Damp=F
 DIIS: error= 1.48D-06 at cycle  29 NSaved=  20.
 NSaved=20 IEnMin=20 EnMin= -5078.54307846878     IErMin=20 ErrMin= 1.48D-06
 ErrMax= 1.48D-06  0.00D+00 EMaxC= 1.00D-01 BMatC= 5.74D-09 BMatP= 1.44D-08
 IDIUse=1 WtCom= 1.00D+00 WtEn= 0.00D+00
 Coeff-Com: -0.234D-04 0.250D-04 0.350D-04 0.235D-03 0.122D-03-0.393D-03
 Coeff-Com:  0.540D-03-0.285D-02 0.879D-03 0.273D-02 0.400D-02 0.517D-02
 Coeff-Com:  0.212D-01 0.231D-01-0.415D-01-0.242D+00-0.198D+00 0.188D+00
 Coeff-Com:  0.707D+00 0.532D+00
 Coeff:     -0.234D-04 0.250D-04 0.350D-04 0.235D-03 0.122D-03-0.393D-03
 Coeff:      0.540D-03-0.285D-02 0.879D-03 0.273D-02 0.400D-02 0.517D-02
 Coeff:      0.212D-01 0.231D-01-0.415D-01-0.242D+00-0.198D+00 0.188D+00
 Coeff:      0.707D+00 0.532D+00
 Gap=     0.178 Goal=   None    Shift=    0.000
 Gap=     0.013 Goal=   None    Shift=    0.000
 RMSDP=1.36D-07 MaxDP=1.50D-05 DE=-4.97D-09 OVMax= 1.77D-04

 Cycle  30  Pass 1  IDiag  1:
 RMSU=  6.22D-08    CP:  1.00D+00  2.22D+00  3.00D+00  3.00D+00  2.92D+00
                    CP:  3.00D+00  3.00D+00  2.34D+00  1.23D+00
 E= -5078.54307847013     Delta-E=       -0.000000001353 Rises=F Damp=F
 DIIS: error= 9.16D-07 at cycle  30 NSaved=  20.
 NSaved=20 IEnMin=20 EnMin= -5078.54307847013     IErMin=20 ErrMin= 9.16D-07
 ErrMax= 9.16D-07  0.00D+00 EMaxC= 1.00D-01 BMatC= 2.03D-09 BMatP= 5.74D-09
 IDIUse=1 WtCom= 1.00D+00 WtEn= 0.00D+00
 Coeff-Com:  0.150D-04-0.576D-04-0.847D-04 0.226D-03 0.519D-03 0.553D-03
 Coeff-Com:  0.581D-03-0.164D-02-0.404D-02-0.141D-02 0.608D-02 0.134D-01
 Coeff-Com:  0.923D-02-0.966D-03-0.459D-01-0.138D+00-0.329D-01 0.223D+00
 Coeff-Com:  0.357D+00 0.614D+00
 Coeff:      0.150D-04-0.576D-04-0.847D-04 0.226D-03 0.519D-03 0.553D-03
 Coeff:      0.581D-03-0.164D-02-0.404D-02-0.141D-02 0.608D-02 0.134D-01
 Coeff:      0.923D-02-0.966D-03-0.459D-01-0.138D+00-0.329D-01 0.223D+00
 Coeff:      0.357D+00 0.614D+00
 Gap=     0.178 Goal=   None    Shift=    0.000
 Gap=     0.013 Goal=   None    Shift=    0.000
 RMSDP=9.07D-08 MaxDP=8.89D-06 DE=-1.35D-09 OVMax= 1.19D-04

 Cycle  31  Pass 1  IDiag  1:
 RMSU=  4.08D-08    CP:  1.00D+00  2.23D+00  3.00D+00  3.00D+00  3.00D+00
                    CP:  3.00D+00  3.00D+00  2.43D+00  1.38D+00  1.65D+00
 E= -5078.54307847070     Delta-E=       -0.000000000573 Rises=F Damp=F
 DIIS: error= 5.33D-07 at cycle  31 NSaved=  20.
 NSaved=20 IEnMin=20 EnMin= -5078.54307847070     IErMin=20 ErrMin= 5.33D-07
 ErrMax= 5.33D-07  0.00D+00 EMaxC= 1.00D-01 BMatC= 7.51D-10 BMatP= 2.03D-09
 IDIUse=1 WtCom= 1.00D+00 WtEn= 0.00D+00
 Coeff-Com: -0.292D-04-0.627D-04 0.150D-03 0.412D-03 0.407D-03 0.179D-02
 Coeff-Com: -0.454D-04-0.421D-02-0.394D-02 0.381D-02 0.628D-02-0.221D-02
 Coeff-Com:  0.142D-02 0.305D-01-0.613D-02-0.667D-01-0.635D-01 0.907D-01
 Coeff-Com:  0.201D+00 0.810D+00
 Coeff:     -0.292D-04-0.627D-04 0.150D-03 0.412D-03 0.407D-03 0.179D-02
 Coeff:     -0.454D-04-0.421D-02-0.394D-02 0.381D-02 0.628D-02-0.221D-02
 Coeff:      0.142D-02 0.305D-01-0.613D-02-0.667D-01-0.635D-01 0.907D-01
 Coeff:      0.201D+00 0.810D+00
 Gap=     0.178 Goal=   None    Shift=    0.000
 Gap=     0.013 Goal=   None    Shift=    0.000
 RMSDP=3.86D-08 MaxDP=5.06D-06 DE=-5.73D-10 OVMax= 5.07D-05

 Cycle  32  Pass 1  IDiag  1:
 RMSU=  2.15D-08    CP:  1.00D+00  2.23D+00  3.00D+00  3.00D+00  3.00D+00
                    CP:  3.00D+00  3.00D+00  2.53D+00  1.46D+00  1.90D+00
                    CP:  1.43D+00
 E= -5078.54307847086     Delta-E=       -0.000000000162 Rises=F Damp=F
 DIIS: error= 1.72D-07 at cycle  32 NSaved=  20.
 NSaved=20 IEnMin=20 EnMin= -5078.54307847086     IErMin=20 ErrMin= 1.72D-07
 ErrMax= 1.72D-07  0.00D+00 EMaxC= 1.00D-01 BMatC= 1.12D-10 BMatP= 7.51D-10
 IDIUse=1 WtCom= 1.00D+00 WtEn= 0.00D+00
 Coeff-Com:  0.395D-06 0.775D-04 0.187D-03 0.284D-03 0.137D-02 0.443D-03
 Coeff-Com: -0.283D-02-0.297D-02 0.210D-02 0.270D-02-0.487D-02-0.245D-02
 Coeff-Com:  0.331D-01 0.529D-01-0.355D-01-0.140D+00-0.686D-01-0.131D+00
 Coeff-Com:  0.651D+00 0.644D+00
 Coeff:      0.395D-06 0.775D-04 0.187D-03 0.284D-03 0.137D-02 0.443D-03
 Coeff:     -0.283D-02-0.297D-02 0.210D-02 0.270D-02-0.487D-02-0.245D-02
 Coeff:      0.331D-01 0.529D-01-0.355D-01-0.140D+00-0.686D-01-0.131D+00
 Coeff:      0.651D+00 0.644D+00
 Gap=     0.178 Goal=   None    Shift=    0.000
 Gap=     0.013 Goal=   None    Shift=    0.000
 RMSDP=3.34D-08 MaxDP=4.29D-06 DE=-1.62D-10 OVMax= 4.41D-05

 Cycle  33  Pass 1  IDiag  1:
 RMSU=  7.22D-09    CP:  1.00D+00  2.23D+00  3.00D+00  3.00D+00  3.00D+00
                    CP:  3.00D+00  3.00D+00  2.62D+00  1.52D+00  2.16D+00
                    CP:  1.80D+00  1.75D+00
 E= -5078.54307847106     Delta-E=       -0.000000000196 Rises=F Damp=F
 DIIS: error= 9.13D-08 at cycle  33 NSaved=  20.
 NSaved=20 IEnMin=20 EnMin= -5078.54307847106     IErMin=20 ErrMin= 9.13D-08
 ErrMax= 9.13D-08  0.00D+00 EMaxC= 1.00D-01 BMatC= 4.63D-11 BMatP= 1.12D-10
 IDIUse=1 WtCom= 1.00D+00 WtEn= 0.00D+00
 Coeff-Com:  0.356D-05 0.244D-04-0.354D-04 0.183D-03 0.617D-04-0.107D-03
 Coeff-Com: -0.270D-03-0.127D-03-0.153D-02-0.433D-02-0.363D-02 0.185D-01
 Coeff-Com:  0.497D-01-0.147D-02-0.940D-01-0.103D+00-0.213D+00 0.116D+00
 Coeff-Com:  0.556D+00 0.681D+00
 Coeff:      0.356D-05 0.244D-04-0.354D-04 0.183D-03 0.617D-04-0.107D-03
 Coeff:     -0.270D-03-0.127D-03-0.153D-02-0.433D-02-0.363D-02 0.185D-01
 Coeff:      0.497D-01-0.147D-02-0.940D-01-0.103D+00-0.213D+00 0.116D+00
 Coeff:      0.556D+00 0.681D+00
 Gap=     0.178 Goal=   None    Shift=    0.000
 Gap=     0.013 Goal=   None    Shift=    0.000
 RMSDP=3.25D-08 MaxDP=3.87D-06 DE=-1.96D-10 OVMax= 4.29D-05

 Cycle  34  Pass 1  IDiag  1:
 RMSU=  5.03D-09    CP:  1.00D+00  2.23D+00  3.00D+00  3.00D+00  3.00D+00
                    CP:  3.00D+00  3.00D+00  2.69D+00  1.57D+00  2.38D+00
                    CP:  2.13D+00  2.54D+00  1.68D+00
 E= -5078.54307847087     Delta-E=        0.000000000186 Rises=F Damp=F
 DIIS: error= 3.71D-08 at cycle  34 NSaved=  20.
 NSaved=20 IEnMin=19 EnMin= -5078.54307847106     IErMin=20 ErrMin= 3.71D-08
 ErrMax= 3.71D-08  0.00D+00 EMaxC= 1.00D-01 BMatC= 9.62D-12 BMatP= 4.63D-11
 IDIUse=1 WtCom= 1.00D+00 WtEn= 0.00D+00
 Coeff-Com: -0.236D-04-0.831D-04-0.265D-03 0.630D-05 0.615D-03 0.398D-03
 Coeff-Com: -0.109D-02-0.203D-02-0.966D-03 0.130D-02 0.952D-02 0.191D-01
 Coeff-Com:  0.673D-02-0.323D-01-0.637D-01-0.980D-01-0.115D+00 0.106D+00
 Coeff-Com:  0.399D+00 0.771D+00
 Coeff:     -0.236D-04-0.831D-04-0.265D-03 0.630D-05 0.615D-03 0.398D-03
 Coeff:     -0.109D-02-0.203D-02-0.966D-03 0.130D-02 0.952D-02 0.191D-01
 Coeff:      0.673D-02-0.323D-01-0.637D-01-0.980D-01-0.115D+00 0.106D+00
 Coeff:      0.399D+00 0.771D+00
 Gap=     0.178 Goal=   None    Shift=    0.000
 Gap=     0.013 Goal=   None    Shift=    0.000
 RMSDP=1.87D-08 MaxDP=2.11D-06 DE= 1.86D-10 OVMax= 2.47D-05

 Cycle  35  Pass 1  IDiag  1:
 RMSU=  5.22D-09    CP:  1.00D+00  2.23D+00  3.00D+00  3.00D+00  3.00D+00
                    CP:  3.00D+00  3.00D+00  2.74D+00  1.58D+00  2.47D+00
                    CP:  2.26D+00  3.00D+00  2.66D+00  1.91D+00
 E= -5078.54307847099     Delta-E=       -0.000000000120 Rises=F Damp=F
 DIIS: error= 5.92D-08 at cycle  35 NSaved=  20.
 NSaved=20 IEnMin=18 EnMin= -5078.54307847106     IErMin=19 ErrMin= 3.71D-08
 ErrMax= 5.92D-08  0.00D+00 EMaxC= 1.00D-01 BMatC= 1.46D-11 BMatP= 9.62D-12
 IDIUse=1 WtCom= 1.00D+00 WtEn= 0.00D+00
 Coeff-Com: -0.210D-04-0.254D-03-0.152D-04 0.537D-03 0.300D-03-0.102D-02
 Coeff-Com: -0.998D-03 0.162D-02 0.451D-02 0.161D-02-0.389D-02 0.585D-02
 Coeff-Com:  0.274D-02-0.244D-01 0.107D-01-0.764D-01-0.167D+00-0.295D-01
 Coeff-Com:  0.554D+00 0.722D+00
 Coeff:     -0.210D-04-0.254D-03-0.152D-04 0.537D-03 0.300D-03-0.102D-02
 Coeff:     -0.998D-03 0.162D-02 0.451D-02 0.161D-02-0.389D-02 0.585D-02
 Coeff:      0.274D-02-0.244D-01 0.107D-01-0.764D-01-0.167D+00-0.295D-01
 Coeff:      0.554D+00 0.722D+00
 Gap=     0.178 Goal=   None    Shift=    0.000
 Gap=     0.013 Goal=   None    Shift=    0.000
 RMSDP=1.40D-08 MaxDP=1.55D-06 DE=-1.20D-10 OVMax= 1.85D-05

 Cycle  36  Pass 1  IDiag  1:
 RMSU=  6.12D-09    CP:  1.00D+00  2.23D+00  3.00D+00  3.00D+00  3.00D+00
                    CP:  3.00D+00  3.00D+00  2.78D+00  1.58D+00  2.55D+00
                    CP:  2.32D+00  3.00D+00  3.00D+00  2.77D+00  2.41D+00
 E= -5078.54307847099     Delta-E=        0.000000000007 Rises=F Damp=F
 DIIS: error= 3.52D-08 at cycle  36 NSaved=  20.
 NSaved=20 IEnMin=17 EnMin= -5078.54307847106     IErMin=20 ErrMin= 3.52D-08
 ErrMax= 3.52D-08  0.00D+00 EMaxC= 1.00D-01 BMatC= 5.79D-12 BMatP= 9.62D-12
 IDIUse=1 WtCom= 1.00D+00 WtEn= 0.00D+00
 Coeff-Com:  0.233D-04 0.647D-04 0.113D-03-0.593D-05-0.525D-03-0.388D-03
[...]
    15  O   -0.233265   0.093441  -0.071170   0.003397   0.004229  -0.336210
    16  C    0.194710   0.009270   0.001603  -0.004030   0.016728   0.207008
    17  H    0.042752   0.011557   0.012539  -0.099067   0.096913   0.114729
    18  Fe   0.544815   4.031794  -0.313189  -0.206381   0.020932   0.871769
    19  O   -0.230740   0.101049   0.037430   0.060096   0.000120  -0.335086
    20  Fe   0.498497   4.049489  -0.003050   0.155773   0.041152   0.830922
    21  O   -0.230000   0.103588  -0.024129  -0.064964  -0.000571  -0.334616
    22  O   -0.242458   0.081833  -0.023962  -0.061530   0.004770  -0.344442
    23  Fe   0.545610   4.034029   0.328910  -0.178172  -0.033166   0.873006
    24  O   -0.342283   0.586982  -0.000614   0.007978   0.000052  -0.578432
    25  C    0.193181   0.002669   0.000374  -0.001478   0.014789   0.205845
    26  H    0.041446   0.011959  -0.079544   0.037291   0.107297   0.113430
    27  C    0.188055   0.002801  -0.002661  -0.005236  -0.011103   0.201327
    28  H    0.036982   0.011620  -0.091506   0.040874  -0.092123   0.108823
    29  O   -0.189680   0.054353  -0.007973  -0.020934  -0.092735  -0.555948
    30  H    0.173271   0.002875   0.129572   0.067843  -0.121420   0.347272
    31  H    0.174438   0.002890  -0.156169   0.057729  -0.096329   0.348095
       Tot  -0.000072  13.999996  -0.019011  -0.148532  -0.254204  -0.000072
 Hirshfeld charges and spin densities with hydrogens summed into heavy atoms:
              Q-H        S-H       Q-CM5   
     1  O   -0.232449   0.094002  -0.335701
     2  O   -0.232564   0.093689  -0.335774
     3  C    0.238230   0.020765   0.322482
     5  O   -0.230157   0.103029  -0.334578
     6  O   -0.230905   0.101029  -0.335131
     7  C    0.234764   0.015553   0.319447
     9  O   -0.231016   0.095498  -0.334152
    10  O   -0.231109   0.095351  -0.334233
    11  O   -0.242116   0.080596  -0.344010
    12  C    0.225153   0.014803   0.310291
    14  O   -0.233231   0.093486  -0.336206
    15  O   -0.233265   0.093441  -0.336210
    16  C    0.237462   0.020826   0.321738
    18  Fe   0.544815   4.031794   0.871769
    19  O   -0.230740   0.101049  -0.335086
    20  Fe   0.498497   4.049489   0.830922
    21  O   -0.230000   0.103588  -0.334616
    22  O   -0.242458   0.081833  -0.344442
    23  Fe   0.545610   4.034029   0.873006
    24  O   -0.342283   0.586982  -0.578432
    25  C    0.234627   0.014627   0.319275
    27  C    0.225037   0.014421   0.310150
    29  O    0.158028   0.060119   0.139419
 
 EQQ=  12.8442344460     EQD=-0.399778042341     EDD=-0.237492517577E-03
 EQQ+QD+DD=  12.4442189111    
 
                          Isotropic Fermi Contact Couplings
        Atom                 a.u.       MegaHertz       Gauss      10(-4) cm-1
     1  O(17)              0.09372      -4.05787      -1.44795      -1.35356
     2  O(17)              0.09324      -4.03728      -1.44060      -1.34669
     3  C(13)             -0.00340      -0.27341      -0.09756      -0.09120
     4  H(1)               0.00692       2.21032       0.78870       0.73728
     5  O(17)              0.10801      -4.67698      -1.66886      -1.56007
     6  O(17)              0.10121      -4.38236      -1.56373      -1.46180
     7  C(13)             -0.00245      -0.19663      -0.07016      -0.06559
     8  H(1)               0.00772       2.46497       0.87956       0.82222
     9  O(17)              0.09735      -4.21509      -1.50405      -1.40600
    10  O(17)              0.09696      -4.19838      -1.49809      -1.40043
    11  O(17)              0.09761      -4.22637      -1.50807      -1.40977
    12  C(13)             -0.00371      -0.29766      -0.10621      -0.09929
    13  H(1)               0.00733       2.33982       0.83491       0.78048
    14  O(17)              0.09374      -4.05895      -1.44834      -1.35392
    15  O(17)              0.09386      -4.06404      -1.45015      -1.35562
    16  C(13)             -0.00493      -0.39577      -0.14122      -0.13202
    17  H(1)               0.00698       2.22966       0.79560       0.74374
    18  Fe(57)             0.66157       6.85388       2.44564       2.28621
    19  O(17)              0.10127      -4.38495      -1.56466      -1.46266
    20  Fe(57)             0.58443       6.05465       2.16045       2.01961
    21  O(17)              0.10898      -4.71896      -1.68384      -1.57408
    22  O(17)              0.09891      -4.28279      -1.52821      -1.42859
    23  Fe(57)             0.66069       6.84476       2.44238       2.28317
    24  O(17)              0.44124     -19.10572      -6.81740      -6.37298
    25  C(13)             -0.00237      -0.19063      -0.06802      -0.06359
    26  H(1)               0.00773       2.46915       0.88105       0.82362
    27  C(13)             -0.00362      -0.29089      -0.10380      -0.09703
    28  H(1)               0.00735       2.34602       0.83712       0.78255
    29  O(17)              0.05046      -2.18488      -0.77962      -0.72880
    30  H(1)              -0.00015      -0.04735      -0.01690      -0.01580
    31  H(1)              -0.00011      -0.03651      -0.01303      -0.01218
 --------------------------------------------------------
       Center         ----  Spin Dipole Couplings  ----
                      3XX-RR        3YY-RR        3ZZ-RR
 --------------------------------------------------------
     1   Atom       -0.172707      0.090578      0.082129
     2   Atom       -0.168603      0.098061      0.070542
     3   Atom        0.019531     -0.001818     -0.017713
     4   Atom       -0.012703      0.008485      0.004218
     5   Atom        0.034651     -0.088318      0.053667
     6   Atom        0.113733     -0.146507      0.032773
     7   Atom        0.017447      0.014715     -0.032161
     8   Atom        0.008847     -0.007679     -0.001168
     9   Atom        0.110967     -0.157559      0.046592
    10   Atom        0.020040     -0.141337      0.121297
    11   Atom       -0.006938     -0.089753      0.096691
    12   Atom       -0.013895      0.022247     -0.008352
    13   Atom       -0.003016     -0.004746      0.007762
    14   Atom       -0.175016      0.110442      0.064574
    15   Atom       -0.159616      0.104689      0.054927
    16   Atom        0.020291      0.003032     -0.023323
    17   Atom       -0.012436      0.010626      0.001809
    18   Atom       -0.064733      0.350607     -0.285874
    19   Atom        0.056562     -0.162787      0.106225
    20   Atom        0.012833      0.726590     -0.739424
    21   Atom       -0.012679     -0.109326      0.122005
    22   Atom        0.073874     -0.109815      0.035942
    23   Atom        0.066113      0.186680     -0.252793
    24   Atom        0.045829      0.005279     -0.051108
    25   Atom       -0.010109      0.019655     -0.009546
    26   Atom        0.000524     -0.008701      0.008177
    27   Atom        0.005948      0.024073     -0.030021
    28   Atom        0.007287     -0.006378     -0.000909
    29   Atom       -0.161720      0.300185     -0.138465
    30   Atom       -0.037691      0.063887     -0.026196
    31   Atom       -0.024533      0.058685     -0.034152
 --------------------------------------------------------
                        XY            XZ            YZ
 --------------------------------------------------------
     1   Atom       -0.028402     -0.018638      0.243502
     2   Atom        0.045588      0.039710      0.238861
     3   Atom        0.007011     -0.006243      0.070661
     4   Atom        0.001848      0.000030      0.032363
     5   Atom        0.145994      0.212425      0.120146
     6   Atom        0.104497      0.216048      0.074871
     7   Atom       -0.018973      0.063480      0.048181
     8   Atom        0.008648      0.027498      0.015327
     9   Atom       -0.091949      0.227311     -0.082133
    10   Atom        0.094095     -0.216311     -0.118057
    11   Atom        0.113984     -0.181859     -0.132021
    12   Atom       -0.015411     -0.065381     -0.038594
    13   Atom        0.007920     -0.025790     -0.017435
    14   Atom        0.005341      0.003138     -0.242546
    15   Atom       -0.069491      0.056943     -0.233602
    16   Atom       -0.005247     -0.000839     -0.069186
    17   Atom       -0.003751      0.002625     -0.031952
    18   Atom        0.635749      0.011880      0.007682
    19   Atom       -0.071360     -0.223445      0.071023
    20   Atom        0.049880     -0.060009      0.309117
    21   Atom       -0.118496     -0.209496      0.124093
    22   Atom       -0.122884      0.198367     -0.096822
    23   Atom       -0.645073     -0.086124      0.138783
    24   Atom        0.000637     -0.007941     -0.017086
    25   Atom        0.025742     -0.072962      0.038716
    26   Atom       -0.005058     -0.028949      0.013984
    27   Atom        0.008038      0.066813     -0.035328
    28   Atom       -0.009667      0.027409     -0.013662
    29   Atom       -0.021399      0.004465     -0.061456
    30   Atom        0.025600     -0.020500     -0.049026
    31   Atom       -0.040445      0.023889     -0.040993
 --------------------------------------------------------


 ---------------------------------------------------------------------------------
              Anisotropic Spin Dipole Couplings in Principal Axis System
 ---------------------------------------------------------------------------------

       Atom             a.u.   MegaHertz   Gauss  10(-4) cm-1        Axes

              Baa    -0.1771    12.814     4.573     4.274  0.9471  0.2650 -0.1808
     1 O(17)  Bbb    -0.1550    11.215     4.002     3.741  0.3140 -0.6499  0.6921
              Bcc     0.3321   -24.030    -8.574    -8.016 -0.0659  0.7123  0.6988
 
              Baa    -0.1762    12.748     4.549     4.252  0.9865 -0.1639 -0.0001
     2 O(17)  Bbb    -0.1547    11.193     3.994     3.734 -0.1116 -0.6719  0.7322
              Bcc     0.3309   -23.941    -8.543    -7.986  0.1201  0.7223  0.6811
 
              Baa    -0.0817   -10.968    -3.913    -3.658  0.0917 -0.6641  0.7420
     3 C(13)  Bbb     0.0204     2.732     0.975     0.911  0.9954  0.0418 -0.0856
              Bcc     0.0614     8.235     2.939     2.747  0.0259  0.7465  0.6649
 
              Baa    -0.0262   -13.977    -4.987    -4.662  0.0918 -0.6820  0.7256
     4 H(1)   Bbb    -0.0126    -6.736    -2.404    -2.247  0.9954  0.0434 -0.0851
              Bcc     0.0388    20.713     7.391     6.909  0.0266  0.7301  0.6828
 
              Baa    -0.1903    13.770     4.914     4.593  0.6917 -0.6685 -0.2731
     5 O(17)  Bbb    -0.1491    10.788     3.849     3.598 -0.3240 -0.6252  0.7100
              Bcc     0.3394   -24.558    -8.763    -8.192  0.6454  0.4026  0.6491
 
              Baa    -0.1833    13.263     4.733     4.424 -0.3435  0.9390  0.0181
     6 O(17)  Bbb    -0.1445    10.452     3.730     3.487 -0.5705 -0.2240  0.7901
              Bcc     0.3277   -23.715    -8.462    -7.911  0.7460  0.2611  0.6127
 
              Baa    -0.0982   -13.184    -4.704    -4.398 -0.4895 -0.4104  0.7694
     7 C(13)  Bbb     0.0333     4.471     1.595     1.491 -0.5151  0.8480  0.1247
              Bcc     0.0649     8.712     3.109     2.906  0.7036  0.3353  0.6265
 
              Baa    -0.0268   -14.293    -5.100    -4.768 -0.5002 -0.3926  0.7718
     8 H(1)   Bbb    -0.0110    -5.889    -2.101    -1.964 -0.5120  0.8529  0.1020
              Bcc     0.0378    20.182     7.202     6.732  0.6983  0.3441  0.6277
 
              Baa    -0.1882    13.621     4.860     4.543  0.1524  0.9696  0.1916
     9 O(17)  Bbb    -0.1507    10.906     3.892     3.638 -0.6638 -0.0432  0.7467
              Bcc     0.3390   -24.527    -8.752    -8.181  0.7322 -0.2410  0.6370
 
              Baa    -0.1887    13.652     4.872     4.554 -0.1934  0.9542  0.2284
    10 O(17)  Bbb    -0.1515    10.961     3.911     3.656  0.7816  0.0091  0.6237
              Bcc     0.3402   -24.614    -8.783    -8.210 -0.5931 -0.2992  0.7475
 
              Baa    -0.1699    12.291     4.386     4.100 -0.5231  0.8499  0.0640
    11 O(17)  Bbb    -0.1400    10.128     3.614     3.378  0.6422  0.3437  0.6852
              Bcc     0.3098   -22.419    -8.000    -7.478 -0.5603 -0.3995  0.7255
 
              Baa    -0.0896   -12.023    -4.290    -4.011  0.6551  0.3255  0.6818
    12 C(13)  Bbb     0.0258     3.467     1.237     1.157 -0.5587  0.8162  0.1472
              Bcc     0.0638     8.556     3.053     2.854 -0.5086 -0.4774  0.7166
 
              Baa    -0.0256   -13.655    -4.872    -4.555  0.6642  0.3148  0.6781
    13 H(1)   Bbb    -0.0114    -6.094    -2.175    -2.033 -0.5062  0.8568  0.0981
              Bcc     0.0370    19.749     7.047     6.588 -0.5501 -0.4084  0.7284
 
              Baa    -0.1767    12.787     4.563     4.265  0.9612 -0.1883 -0.2018
    14 O(17)  Bbb    -0.1544    11.174     3.987     3.727  0.2760  0.6461  0.7116
              Bcc     0.3311   -23.961    -8.550    -7.993  0.0036  0.7397 -0.6730
 
              Baa    -0.1768    12.792     4.565     4.267  0.9670  0.2542  0.0186
    15 O(17)  Bbb    -0.1544    11.169     3.985     3.726 -0.1805  0.6315  0.7540
              Bcc     0.3311   -23.961    -8.550    -7.993 -0.1799  0.7325 -0.6566
 
              Baa    -0.0807   -10.834    -3.866    -3.614  0.0395  0.6378  0.7692
    16 C(13)  Bbb     0.0201     2.703     0.964     0.902  0.9954  0.0419 -0.0858
              Bcc     0.0606     8.131     2.901     2.712 -0.0870  0.7691 -0.6332
 
              Baa    -0.0261   -13.902    -4.960    -4.637  0.0365  0.6585  0.7517
    17 H(1)   Bbb    -0.0128    -6.841    -2.441    -2.282  0.9954  0.0426 -0.0856
              Bcc     0.0389    20.743     7.402     6.919 -0.0884  0.7514 -0.6539
 
              Baa    -0.5260    -9.106    -3.249    -3.038  0.8094 -0.5868 -0.0213
    18 Fe(57) Bbb    -0.2859    -4.950    -1.766    -1.651  0.0102 -0.0222  0.9997
              Bcc     0.8119    14.056     5.016     4.689  0.5871  0.8094  0.0120
 
              Baa    -0.1842    13.330     4.756     4.446  0.2355  0.9702 -0.0561
    19 O(17)  Bbb    -0.1426    10.321     3.683     3.443  0.7179 -0.1348  0.6830
              Bcc     0.3269   -23.651    -8.439    -7.889 -0.6551  0.2011  0.7283
 
              Baa    -0.8077   -13.984    -4.990    -4.664  0.0835 -0.1994  0.9763
    20 Fe(57) Bbb     0.0168     0.291     0.104     0.097  0.9954 -0.0302 -0.0913
              Bcc     0.7909    13.692     4.886     4.567  0.0477  0.9794  0.1960
 
              Baa    -0.1913    13.839     4.938     4.616  0.6694  0.7253  0.1604
    21 O(17)  Bbb    -0.1481    10.715     3.823     3.574  0.4841 -0.5897  0.6464
              Bcc     0.3393   -24.554    -8.762    -8.190 -0.5635  0.3551  0.7459
 
              Baa    -0.1715    12.409     4.428     4.139  0.4775  0.8774 -0.0471
    22 O(17)  Bbb    -0.1405    10.164     3.627     3.390 -0.5316  0.3311  0.7796
              Bcc     0.3120   -22.573    -8.055    -7.530  0.6996 -0.3472  0.6246
 
              Baa    -0.5250    -9.089    -3.243    -3.032  0.7243  0.6794 -0.1172
    23 Fe(57) Bbb    -0.2738    -4.741    -1.692    -1.581  0.1886 -0.0317  0.9816
              Bcc     0.7988    13.830     4.935     4.613 -0.6632  0.7331  0.1511
 
              Baa    -0.0564     4.083     1.457     1.362  0.0730  0.2654  0.9614
    24 O(17)  Bbb     0.0098    -0.713    -0.254    -0.238 -0.0744  0.9627 -0.2601
              Bcc     0.0466    -3.371    -1.203    -1.124  0.9945  0.0526 -0.0900
 
              Baa    -0.1002   -13.444    -4.797    -4.485  0.6474 -0.3567  0.6735
    25 C(13)  Bbb     0.0344     4.614     1.647     1.539  0.4488  0.8927  0.0412
              Bcc     0.0658     8.830     3.151     2.945 -0.6159  0.2756  0.7380
 
              Baa    -0.0268   -14.307    -5.105    -4.772  0.6534 -0.3398  0.6764
    26 H(1)   Bbb    -0.0109    -5.822    -2.077    -1.942  0.4453  0.8952  0.0195
              Bcc     0.0377    20.129     7.182     6.714 -0.6122  0.2885  0.7362
 
              Baa    -0.0908   -12.184    -4.348    -4.064 -0.5613  0.2789  0.7792
    27 C(13)  Bbb     0.0266     3.575     1.276     1.193  0.5003  0.8644  0.0510
              Bcc     0.0642     8.609     3.072     2.872  0.6593 -0.4184  0.6247
 
              Baa    -0.0256   -13.682    -4.882    -4.564 -0.5694  0.2659  0.7779
    28 H(1)   Bbb    -0.0114    -6.069    -2.166    -2.025  0.4411  0.8973  0.0161
              Bcc     0.0370    19.751     7.048     6.588  0.6937 -0.3523  0.6282
 
              Baa    -0.1629    11.785     4.205     3.931  0.9945  0.0328 -0.0995
    29 O(17)  Bbb    -0.1468    10.620     3.790     3.543  0.0940  0.1400  0.9857
              Bcc     0.3096   -22.405    -7.995    -7.474 -0.0462  0.9896 -0.1362
 
              Baa    -0.0549   -29.283   -10.449    -9.768  0.6383  0.1721  0.7503
    30 H(1)   Bbb    -0.0382   -20.403    -7.280    -6.806  0.7326 -0.4350 -0.5235
              Bcc     0.0931    49.687    17.729    16.574  0.2362  0.8838 -0.4037
 
              Baa    -0.0545   -29.080   -10.376    -9.700 -0.5075  0.1273  0.8522
    31 H(1)   Bbb    -0.0381   -20.305    -7.245    -6.773  0.7787  0.4910  0.3904
              Bcc     0.0926    49.385    17.622    16.473 -0.3687  0.8618 -0.3483
 

 ---------------------------------------------------------------------------------

 No NMR shielding tensors so no spin-rotation constants.
 Leave Link  601 at Mon Jan 30 03:10:10 2023, MaxMem= 14763950080 cpu:              18.2 elap:               9.3
 (Enter /software/commercial/gaussian/g16/AVX2/g16/l9999.exe)
 Unable to Open any file for archive entry.
 1\1\GINC-NODE0168\FOpt\UM06L\Gen\C6H8Fe3O14(15)\SVICCHI\30-Jan-2023\0\
 \#p opt=(cartesian,maxcycle=500) gen um06l int=grid=ultrafine scf=(xqc
 ,intrep,maxconventionalcycle=150) pop=(hirshfeld) nosymm\\FeFeFe-A-1xH
 2O\\0,15\O,1.5270099027,-2.1744197284,-1.5285381115\O,-0.7165557014,-2
 .2764904452,-1.3332801778\C,0.3885852319,-2.6087304699,-1.8227672364\H
 ,0.3546011755,-3.3754068252,-2.6151794407\O,1.9368203875,2.2091937537,
 1.4399278966\O,3.1040915823,0.2951009293,1.1976194746\C,2.8888014351,1
 .4312649891,1.682186749\H,3.6299740982,1.788878993,2.4171504871\O,-2.2
 195743878,0.1268709639,-1.2046650103\O,2.8272280762,0.3428184314,-1.63
 07965862\O,1.7343837521,2.3022379664,-1.4047355643\C,2.5657775506,1.52
 81409915,-1.937278114\H,3.1396992296,1.9404957795,-2.7860170266\O,-0.4
 754766035,-2.3041803558,1.4787684459\O,1.7684984046,-2.2096676759,1.28
 4965304\C,0.6957860024,-2.6504569345,1.760678707\H,0.7951690715,-3.437
 6515997,2.5271568677\Fe,-1.1065639103,-0.9217280418,0.1286504747\O,-2.
 0242964471,0.0723941202,1.6293833289\Fe,0.3557487627,2.069795516,0.180
 4276109\O,-1.0069232217,2.0839884491,1.6780072507\O,-1.267999724,2.170
 8422616,-1.1609967468\Fe,2.0396761324,-0.7847418561,-0.1394591597\O,0.
 4263069613,0.1570995761,0.0202193113\C,-1.8333549986,1.2291534867,2.07
 37794212\H,-2.4712092993,1.5300157292,2.9222460797\C,-2.1089634241,1.3
 249427862,-1.5504933562\H,-2.8446652055,1.6781758337,-2.2945923639\O,0
 .2424023461,4.2003585331,-0.2142437578\H,0.9512390747,4.2655925671,-0.
 8719167785\H,-0.5744262541,4.218000276,-0.7347889785\\Version=ES64L-G1
 6RevC.02\HF=-5078.5437382\S2=56.062682\S2-1=0.\S2A=56.000307\RMSD=4.60
 9e-09\RMSF=1.755e-05\Dipole=-0.088776,0.8971498,-0.5342667\Quadrupole=
 -3.918962,4.3360327,-0.4170707,-0.1767953,0.1161246,-5.9739917\PG=C01 
 [X(C6H8Fe3O14)]\\@
 The archive entry for this job was punched.


 The cat could very well be man's best friend
 but would never stoop to admitting it.
                               -- Doug Larson
 Job cpu time:       4 days 21 hours 12 minutes 25.8 seconds.
 Elapsed time:       2 days 11 hours  1 minutes 28.8 seconds.
 File lengths (MBytes):  RWF=    644 Int=      0 D2E=      0 Chk=     61 Scr=      1
 Normal termination of Gaussian 16 at Mon Jan 30 03:10:11 2023.
