 Entering Gaussian System, Link 0=g16
 Input=FeFeFe-A-1xH2O-counterpoise-opt.gjf
 Output=FeFeFe-A-1xH2O-counterpoise-opt.log
 AtFile(1): /zfs/curium/svicchi/00-MOF/01-Gaussian/zw-basis-set/def2-TZVP/H.gbs
            !----------------------------------------------------------------------
            ! Basis Set Exchange
            ! Version v0.9
            ! https://www.basissetexchange.org
            !----------------------------------------------------------------------
            !   Basis set: def2-TZVP
            ! Description: def2-TZVP
            !        Role: orbital
            !     Version: 1  (Data from Turbomole 7.3)
            !----------------------------------------------------------------------
            H     0
            S    3   1.00
                 34.0613410              0.60251978D-02
                  5.1235746              0.45021094D-01
                  1.1646626              0.20189726
            S    1   1.00
                  0.32723041             1.0000000
            S    1   1.00
                  0.10307241             1.0000000
            P    1   1.00
                  0.8000000              1.0000000
 AtFile(1): /zfs/curium/svicchi/00-MOF/01-Gaussian/zw-basis-set/def2-TZVP/O.gbs
            !----------------------------------------------------------------------
            ! Basis Set Exchange
            ! Version v0.9
            ! https://www.basissetexchange.org
            !----------------------------------------------------------------------
            !   Basis set: def2-TZVP
            ! Description: def2-TZVP
            !        Role: orbital
            !     Version: 1  (Data from Turbomole 7.3)
            !----------------------------------------------------------------------
            O     0
            S    6   1.00
              27032.3826310              0.21726302465D-03
               4052.3871392              0.16838662199D-02
                922.32722710             0.87395616265D-02
                261.24070989             0.35239968808D-01
                 85.354641351            0.11153519115
                 31.035035245            0.25588953961
            S    2   1.00
                 12.260860728            0.39768730901
                  4.9987076005           0.24627849430
            S    1   1.00
                  1.1703108158           1.0000000
            S    1   1.00
                  0.46474740994          1.0000000
            S    1   1.00
                  0.18504536357          1.0000000
            P    4   1.00
                 63.274954801            0.60685103418D-02
                 14.627049379            0.41912575824D-01
                  4.4501223456           0.16153841088
                  1.5275799647           0.35706951311
            P    1   1.00
                  0.52935117943           .44794207502
            P    1   1.00
                  0.17478421270           .24446069663
            D    1   1.00
                  2.31400000             1.0000000
            D    1   1.00
                  0.64500000             1.0000000
            F    1   1.00
                  1.42800000             1.0000000
 AtFile(1): /zfs/curium/svicchi/00-MOF/01-Gaussian/zw-basis-set/def2-TZVP/C.gbs
            !----------------------------------------------------------------------
            ! Basis Set Exchange
            ! Version v0.9
            ! https://www.basissetexchange.org
            !----------------------------------------------------------------------
            !   Basis set: def2-TZVP
            ! Description: def2-TZVP
            !        Role: orbital
            !     Version: 1  (Data from Turbomole 7.3)
            !----------------------------------------------------------------------
            C     0
            S    6   1.00
              13575.3496820              0.22245814352D-03
               2035.2333680              0.17232738252D-02
                463.22562359             0.89255715314D-02
                131.20019598             0.35727984502D-01
                 42.853015891            0.11076259931
                 15.584185766            0.24295627626
            S    2   1.00
                  6.2067138508           0.41440263448
                  2.5764896527           0.23744968655
            S    1   1.00
                  0.57696339419          1.0000000
            S    1   1.00
                  0.22972831358          1.0000000
            S    1   1.00
                  0.95164440028D-01      1.0000000
            P    4   1.00
                 34.697232244            0.53333657805D-02
                  7.9582622826           0.35864109092D-01
                  2.3780826883           0.14215873329
                  0.81433208183          0.34270471845
            P    1   1.00
                  0.28887547253           .46445822433
            P    1   1.00
                  0.10056823671           .24955789874
            D    1   1.00
                  1.09700000             1.0000000
            D    1   1.00
                  0.31800000             1.0000000
            F    1   1.00
                  0.76100000             1.0000000
 AtFile(1): /zfs/curium/svicchi/00-MOF/01-Gaussian/zw-basis-set/def2-TZVP/Fe.gbs
            !----------------------------------------------------------------------
            ! Basis Set Exchange
            ! Version v0.9
            ! https://www.basissetexchange.org
            !----------------------------------------------------------------------
            !   Basis set: def2-TZVP
            ! Description: def2-TZVP
            !        Role: orbital
            !     Version: 1  (Data from Turbomole 7.3)
            !----------------------------------------------------------------------
            Fe     0
            S    8   1.00
             300784.8463700              0.22806273096D-03
              45088.9705570              0.17681788761D-02
              10262.5163170              0.91927083490D-02
               2905.2897293              0.37355495807D-01
                946.11487137             0.12151108426
                339.87832894             0.28818881468
                131.94425588             0.41126612677
                 52.111494077            0.21518583573
            S    4   1.00
                329.48839267            -0.24745216477D-01
                101.92332739            -0.11683089050
                 16.240462745            0.55293621136
                  6.8840675801           0.53601640182
            S    2   1.00
                 10.470693782           -0.22912708577
                  1.7360039648           0.71159319984
            S    1   1.00
                  0.72577288979          1.0000000
            S    1   1.00
                  0.11595528203          1.0000000
            S    1   1.00
                  0.41968227746D-01      1.0000000
            P    6   1.00
               1585.3959970              0.23793960179D-02
                375.38006499             0.19253154755D-01
                120.31816501             0.90021836536D-01
                 44.788749031            0.25798172356
                 17.829278584            0.41492649744
                  7.2247153786           0.24207474784
            P    3   1.00
                 28.143219756           -0.29041755152D-01
                  3.8743241412           0.55312260343
                  1.5410752281           0.96771136842
            P    1   1.00
                  0.58285615250          1.0000000
            P    1   1.00
                  0.1349150              1.0000000
            D    4   1.00
                 61.996675034            0.11971972255D-01
                 17.873732552            0.73210135410D-01
                  6.2744782934           0.23103094314
                  2.3552337175           0.39910706494
            D    1   1.00
                  0.85432239901           .41391589765
            D    1   1.00
                  0.27869254413           .21909269782
            D    1   1.00
                  0.0910000              1.0000000
            F    1   1.00
                  1.5980000              1.0000000
 Initial command:
 /software/commercial/gaussian/g16/AVX2/g16/l1.exe "/scratch1/svicchi/G09-87884.pbs02/Gau-1867644.inp" -scrdir="/scratch1/svicchi/G09-87884.pbs02/"
 Entering Link 1 = /software/commercial/gaussian/g16/AVX2/g16/l1.exe PID=   1867645.
  
 Copyright (c) 1988-2021, Gaussian, Inc.  All Rights Reserved.
  
 This is part of the Gaussian(R) 16 program.  It is based on
 the Gaussian(R) 09 system (copyright 2009, Gaussian, Inc.),
 the Gaussian(R) 03 system (copyright 2003, Gaussian, Inc.),
 the Gaussian(R) 98 system (copyright 1998, Gaussian, Inc.),
 the Gaussian(R) 94 system (copyright 1995, Gaussian, Inc.),
 the Gaussian 92(TM) system (copyright 1992, Gaussian, Inc.),
 the Gaussian 90(TM) system (copyright 1990, Gaussian, Inc.),
 the Gaussian 88(TM) system (copyright 1988, Gaussian, Inc.),
 the Gaussian 86(TM) system (copyright 1986, Carnegie Mellon
 University), and the Gaussian 82(TM) system (copyright 1983,
 Carnegie Mellon University). Gaussian is a federally registered
 trademark of Gaussian, Inc.
  
 This software contains proprietary and confidential information,
 including trade secrets, belonging to Gaussian, Inc.
  
 This software is provided under written license and may be
 used, copied, transmitted, or stored only in accord with that
 written license.
  
 The following legend is applicable only to US Government
 contracts under FAR:
  
                    RESTRICTED RIGHTS LEGEND
  
 Use, reproduction and disclosure by the US Government is
 subject to restrictions as set forth in subparagraphs (a)
 and (c) of the Commercial Computer Software - Restricted
 Rights clause in FAR 52.227-19.
  
 Gaussian, Inc.
 340 Quinnipiac St., Bldg. 40, Wallingford CT 06492
  
  
 ---------------------------------------------------------------
 Warning -- This program may not be used in any manner that
 competes with the business of Gaussian, Inc. or will provide
 assistance to any competitor of Gaussian, Inc.  The licensee
 of this program is prohibited from giving any competitor of
 Gaussian, Inc. access to this program.  By using this program,
 the user acknowledges that Gaussian, Inc. is engaged in the
 business of creating and licensing software in the field of
 computational chemistry and represents and warrants to the
 licensee that it is not a competitor of Gaussian, Inc. and that
 it will not use this program in any manner prohibited above.
 ---------------------------------------------------------------
  

 Cite this work as:
 Gaussian 16, Revision C.02,
 M. J. Frisch, G. W. Trucks, H. B. Schlegel, G. E. Scuseria, 
 M. A. Robb, J. R. Cheeseman, G. Scalmani, V. Barone, 
 G. A. Petersson, H. Nakatsuji, X. Li, M. Caricato, A. V. Marenich, 
 J. Bloino, B. G. Janesko, R. Gomperts, B. Mennucci, H. P. Hratchian, 
 J. V. Ortiz, A. F. Izmaylov, J. L. Sonnenberg, D. Williams-Young, 
 F. Ding, F. Lipparini, F. Egidi, J. Goings, B. Peng, A. Petrone, 
 T. Henderson, D. Ranasinghe, V. G. Zakrzewski, J. Gao, N. Rega, 
 G. Zheng, W. Liang, M. Hada, M. Ehara, K. Toyota, R. Fukuda, 
 J. Hasegawa, M. Ishida, T. Nakajima, Y. Honda, O. Kitao, H. Nakai, 
 T. Vreven, K. Throssell, J. A. Montgomery, Jr., J. E. Peralta, 
 F. Ogliaro, M. J. Bearpark, J. J. Heyd, E. N. Brothers, K. N. Kudin, 
 V. N. Staroverov, T. A. Keith, R. Kobayashi, J. Normand, 
 K. Raghavachari, A. P. Rendell, J. C. Burant, S. S. Iyengar, 
 J. Tomasi, M. Cossi, J. M. Millam, M. Klene, C. Adamo, R. Cammi, 
 J. W. Ochterski, R. L. Martin, K. Morokuma, O. Farkas, 
 J. B. Foresman, and D. J. Fox, Gaussian, Inc., Wallingford CT, 2019.
 
 ******************************************
 Gaussian 16:  ES64L-G16RevC.02  7-Dec-2021
                 1-Feb-2023 
 ******************************************
 %NProcShared=2
 Will use up to    2 processors via shared memory.
 %mem=110gb
 %chk=/scratch1/svicchi/G09-87884.pbs02/00-opt/FeFeFe-A-1xH2O-counterpoise-opt.ch
 k
 ----------------------------------------------------------------------
 #p gen um06l int=grid=ultrafine scf=(xqc,intrep,maxconventionalcycle=1
 50) pop=(hirshfeld) nosymm counterpoise=2
 ----------------------------------------------------------------------
 1/38=1,62=2,172=1/1;
 2/12=2,15=1,17=6,18=5,40=1/2;
 1/38=1,53=2,62=2,63=1/22;
 3/5=7,11=2,25=1,30=1,74=-53,75=-5,116=2/1,2,3;
 4//1;
 5/5=2,8=3,13=1,17=20,38=5,85=150/2,8;
 6/7=2,8=2,9=2,10=2,28=1,79=1/1;
 1/53=2,62=2,63=1/22;
 3/5=7,6=11,11=2,25=1,30=1,74=-53,75=-5,82=7,116=2/1,2,3;
 4//1;
 5/5=2,8=3,13=1,17=20,38=5,85=150/2,8;
 6/7=2,8=2,9=2,10=2,28=1,79=1/1;
 1/53=2,62=2,63=1/22(-4);
 99/5=1,9=1/99;
 Leave Link    1 at Wed Feb  1 10:48:37 2023, MaxMem= 14763950080 cpu:               0.0 elap:               0.5
 (Enter /software/commercial/gaussian/g16/AVX2/g16/l101.exe)
 --------------
 FeFeFe-A-1xH2O
 --------------
 Symbolic Z-matrix:
 Charge =  0 Multiplicity =15 in supermolecule
 Charge =  0 Multiplicity =15 in fragment      1.
 Charge =  0 Multiplicity = 1 in fragment      2.
 O(fragment=1)         1.52701  -2.17442  -1.52854 
 O(fragment=1)        -0.71656  -2.27649  -1.33328 
 C(fragment=1)         0.38859  -2.60873  -1.82277 
 H(fragment=1)         0.3546   -3.37541  -2.61518 
 O(fragment=1)         1.93682   2.20919   1.43993 
 O(fragment=1)         3.10409   0.2951    1.19762 
 C(fragment=1)         2.8888    1.43127   1.68219 
 H(fragment=1)         3.62997   1.78888   2.41715 
 O(fragment=1)        -2.21957   0.12687  -1.20467 
 O(fragment=1)         2.82723   0.34282  -1.6308 
 O(fragment=1)         1.73438   2.30224  -1.40474 
 C(fragment=1)         2.56578   1.52814  -1.93728 
 H(fragment=1)         3.1397    1.9405   -2.78602 
 O(fragment=1)        -0.47548  -2.30418   1.47877 
 O(fragment=1)         1.7685   -2.20967   1.28497 
 C(fragment=1)         0.69579  -2.65046   1.76068 
 H(fragment=1)         0.79517  -3.43765   2.52716 
 Fe(fragment=1)       -1.10656  -0.92173   0.12865 
 O(fragment=1)        -2.0243    0.07239   1.62938 
 Fe(fragment=1)        0.35575   2.0698    0.18043 
 O(fragment=1)        -1.00692   2.08399   1.67801 
 O(fragment=1)        -1.268     2.17084  -1.161 
 Fe(fragment=1)        2.03968  -0.78474  -0.13946 
 O(fragment=1)         0.42631   0.1571    0.02022 
 C(fragment=1)        -1.83336   1.22915   2.07378 
 H(fragment=1)        -2.47121   1.53002   2.92225 
 C(fragment=1)        -2.10896   1.32494  -1.55049 
 H(fragment=1)        -2.84467   1.67818  -2.29459 
 O(fragment=2)         0.2424    4.20036  -0.21424 
 H(fragment=2)         0.95124   4.26559  -0.87192 
 H(fragment=2)        -0.57443   4.218    -0.73479 
 
 ITRead=  0  0  0  0  0  0  0  0  0  0  0  0  0  0  0  0  0  0  0  0
 ITRead=  0  0  0  0  0  0  0  0  0  0  0
 MicOpt= -1 -1 -1 -1 -1 -1 -1 -1 -1 -1 -1 -1 -1 -1 -1 -1 -1 -1 -1 -1
 MicOpt= -1 -1 -1 -1 -1 -1 -1 -1 -1 -1 -1
 NAtoms=     31 NQM=       31 NQMF=       0 NMMI=      0 NMMIF=      0
                NMic=       0 NMicF=      0.
                    Isotopes and Nuclear Properties:
 (Nuclear quadrupole moments (NQMom) in fm**2, nuclear magnetic moments (NMagM)
  in nuclear magnetons)

  Atom         1           2           3           4           5           6           7           8           9          10
 IAtWgt=          16          16          12           1          16          16          12           1          16          16
 AtmWgt=  15.9949146  15.9949146  12.0000000   1.0078250  15.9949146  15.9949146  12.0000000   1.0078250  15.9949146  15.9949146
 NucSpn=           0           0           0           1           0           0           0           1           0           0
 AtZEff=  -0.0000000  -0.0000000  -0.0000000  -0.0000000  -0.0000000  -0.0000000  -0.0000000  -0.0000000  -0.0000000  -0.0000000
 NQMom=    0.0000000   0.0000000   0.0000000   0.0000000   0.0000000   0.0000000   0.0000000   0.0000000   0.0000000   0.0000000
 NMagM=    0.0000000   0.0000000   0.0000000   2.7928460   0.0000000   0.0000000   0.0000000   2.7928460   0.0000000   0.0000000
 AtZNuc=   8.0000000   8.0000000   6.0000000   1.0000000   8.0000000   8.0000000   6.0000000   1.0000000   8.0000000   8.0000000

  Atom        11          12          13          14          15          16          17          18          19          20
 IAtWgt=          16          12           1          16          16          12           1          56          16          56
 AtmWgt=  15.9949146  12.0000000   1.0078250  15.9949146  15.9949146  12.0000000   1.0078250  55.9349393  15.9949146  55.9349393
 NucSpn=           0           0           1           0           0           0           1           0           0           0
 AtZEff=  -0.0000000  -0.0000000  -0.0000000  -0.0000000  -0.0000000  -0.0000000  -0.0000000  -0.0000000  -0.0000000  -0.0000000
 NQMom=    0.0000000   0.0000000   0.0000000   0.0000000   0.0000000   0.0000000   0.0000000   0.0000000   0.0000000   0.0000000
 NMagM=    0.0000000   0.0000000   2.7928460   0.0000000   0.0000000   0.0000000   2.7928460   0.0000000   0.0000000   0.0000000
 AtZNuc=   8.0000000   6.0000000   1.0000000   8.0000000   8.0000000   6.0000000   1.0000000  26.0000000   8.0000000  26.0000000

  Atom        21          22          23          24          25          26          27          28          29          30
 IAtWgt=          16          16          56          16          12           1          12           1          16           1
 AtmWgt=  15.9949146  15.9949146  55.9349393  15.9949146  12.0000000   1.0078250  12.0000000   1.0078250  15.9949146   1.0078250
 NucSpn=           0           0           0           0           0           1           0           1           0           1
 AtZEff=  -0.0000000  -0.0000000  -0.0000000  -0.0000000  -0.0000000  -0.0000000  -0.0000000  -0.0000000  -0.0000000  -0.0000000
 NQMom=    0.0000000   0.0000000   0.0000000   0.0000000   0.0000000   0.0000000   0.0000000   0.0000000   0.0000000   0.0000000
 NMagM=    0.0000000   0.0000000   0.0000000   0.0000000   0.0000000   2.7928460   0.0000000   2.7928460   0.0000000   2.7928460
 AtZNuc=   8.0000000   8.0000000  26.0000000   8.0000000   6.0000000   1.0000000   6.0000000   1.0000000   8.0000000   1.0000000

  Atom        31
 IAtWgt=           1
 AtmWgt=   1.0078250
 NucSpn=           1
 AtZEff=  -0.0000000
 NQMom=    0.0000000
 NMagM=    2.7928460
 AtZNuc=   1.0000000
 Leave Link  101 at Wed Feb  1 10:48:38 2023, MaxMem= 14763950080 cpu:               0.1 elap:               0.2
 (Enter /software/commercial/gaussian/g16/AVX2/g16/l202.exe)
                          Input orientation:                          
 ---------------------------------------------------------------------
 Center     Atomic      Atomic             Coordinates (Angstroms)
 Number     Number       Type             X           Y           Z
 ---------------------------------------------------------------------
      1          8           0        1.527010   -2.174420   -1.528538
      2          8           0       -0.716556   -2.276490   -1.333280
      3          6           0        0.388585   -2.608730   -1.822767
      4          1           0        0.354601   -3.375407   -2.615179
      5          8           0        1.936820    2.209194    1.439928
      6          8           0        3.104092    0.295101    1.197619
      7          6           0        2.888801    1.431265    1.682187
      8          1           0        3.629974    1.788879    2.417150
      9          8           0       -2.219574    0.126871   -1.204665
     10          8           0        2.827228    0.342818   -1.630797
     11          8           0        1.734384    2.302238   -1.404736
     12          6           0        2.565778    1.528141   -1.937278
     13          1           0        3.139699    1.940496   -2.786017
     14          8           0       -0.475477   -2.304180    1.478768
     15          8           0        1.768498   -2.209668    1.284965
     16          6           0        0.695786   -2.650457    1.760679
     17          1           0        0.795169   -3.437652    2.527157
     18         26           0       -1.106564   -0.921728    0.128650
     19          8           0       -2.024296    0.072394    1.629383
     20         26           0        0.355749    2.069796    0.180428
     21          8           0       -1.006923    2.083988    1.678007
     22          8           0       -1.268000    2.170842   -1.160997
     23         26           0        2.039676   -0.784742   -0.139459
     24          8           0        0.426307    0.157100    0.020219
     25          6           0       -1.833355    1.229153    2.073779
     26          1           0       -2.471209    1.530016    2.922246
     27          6           0       -2.108963    1.324943   -1.550493
     28          1           0       -2.844665    1.678176   -2.294592
     29          8           0        0.242402    4.200359   -0.214244
     30          1           0        0.951239    4.265593   -0.871917
     31          1           0       -0.574426    4.218000   -0.734789
 ---------------------------------------------------------------------
                    Distance matrix (angstroms):
                    1          2          3          4          5
     1  O    0.000000
     2  O    2.254359   0.000000
     3  C    1.253478   1.253522   0.000000
     4  H    1.999425   1.999565   1.103116   0.000000
     5  O    5.309972   5.903596   6.021179   7.080613   0.000000
     6  O    4.002206   5.255081   4.992889   5.964039   2.254992
     7  C    5.016393   5.986576   5.904011   6.927743   1.253049
     8  H    5.974835   7.034577   6.915379   7.919738   1.999599
     9  O    4.408824   2.837560   3.829890   4.569669   5.348416
    10  O    2.835050   4.416752   3.833467   4.572536   3.702099
    11  O    4.483168   5.193935   5.109162   5.966961   2.853375
    12  C    3.867178   5.061003   4.676215   5.421590   3.502134
    13  H    4.595057   5.896110   5.402956   6.003731   4.402014
    14  O    3.615340   2.822499   3.426294   4.312419   5.117737
    15  O    2.824068   3.610425   3.423654   4.309197   4.424781
    16  C    3.425857   3.421570   3.596832   4.448606   5.025859
    17  H    4.310453   4.305413   4.446826   5.161550   5.862790
    18  Fe   3.354284   2.030942   2.981522   3.960321   4.558981
    19  O    5.256654   4.000601   4.992771   5.963454   4.504692
    20  Fe   4.722900   4.725606   5.089447   6.120920   2.026218
    21  O    5.902270   5.307158   6.018676   7.077442   2.956008
    22  O    5.179621   4.484700   5.101620   5.958889   4.127609
    23  Fe   2.030658   3.353705   2.981033   3.959825   3.386546
    24  O    3.007687   3.010059   3.323829   4.407842   2.916901
    25  C    5.987742   5.014461   5.903341   6.926431   3.946703
    26  H    7.036908   5.973089   6.915402   7.919056   4.699922
    27  C    5.046417   3.867337   4.667511   5.412577   5.108119
    28  H    5.877149   4.592641   5.390184   5.989723   6.090256
    29  O    6.634410   6.642395   6.998029   7.947912   3.093877
    30  H    6.498956   6.767071   6.962543   7.860014   3.247272
    31  H    6.775626   6.523557   6.979637   7.877740   3.882145
                    6          7          8          9         10
     6  O    0.000000
     7  C    1.253804   0.000000
     8  H    1.998795   1.103357   0.000000
     9  O    5.843003   6.010895   7.077925   0.000000
    10  O    2.842335   3.487746   4.372799   5.069362   0.000000
    11  O    3.560471   3.408866   4.296930   4.517304   2.254936
    12  C    3.411414   3.635142   4.490160   5.039829   1.251909
    13  H    4.310214   4.504122   5.228413   5.874667   1.996183
    14  O    4.432676   5.031232   5.872684   4.019042   5.252033
    15  O    2.839949   3.830047   4.553604   5.249990   4.017183
    16  C    3.846204   4.634213   5.361727   5.000614   5.000485
    17  H    4.586092   5.366901   5.946835   5.976704   5.975768
    18  Fe   4.511429   4.890091   5.917720   2.028812   4.491041
    19  O    5.151348   5.097827   5.961348   2.841290   5.851426
    20  Fe   3.426019   3.013197   3.975222   3.510802   3.517271
    21  O    4.509028   3.950029   4.704704   3.689258   5.355424
    22  O    5.310053   5.090154   6.077761   2.255043   4.509243
    23  Fe   2.021588   2.991671   3.960912   4.484073   2.028723
    24  O    2.928455   3.232570   4.321049   2.915809   2.919720
    25  C    5.100833   4.742673   5.502650   3.480285   6.019178
    26  H    5.965177   5.502473   6.127525   4.366180   7.086118
    27  C    5.982360   5.953081   6.992340   1.251882   5.033587
    28  H    7.035350   6.982003   8.008353   1.996303   5.864655
    29  O    5.043180   4.274080   4.920886   4.861642   4.854747
    30  H    4.968155   4.279136   4.911995   5.224346   4.414000
    31  H    5.714441   5.059803   5.788983   4.434482   5.233652
                   11         12         13         14         15
    11  O    0.000000
    12  C    1.254609   0.000000
    13  H    2.003423   1.104436   0.000000
    14  O    5.866615   5.967017   7.019627   0.000000
    15  O    5.252899   4.998972   5.973018   2.254311   0.000000
    16  C    5.968897   5.884933   6.908112   1.253491   1.253519
    17  H    7.020559   6.908353   7.915246   1.999605   1.999589
    18  Fe   4.562479   4.874014   5.892229   2.032797   3.355866
    19  O    5.320316   5.992416   7.046446   2.840709   4.439788
    20  Fe   2.113625   3.108424   4.070245   4.637703   4.640008
    21  O    4.131065   5.113066   6.094471   4.424720   5.127663
    22  O    3.015126   3.964030   4.703356   5.255690   5.864462
    23  Fe   3.350160   2.976300   3.954901   3.354601   2.032962
    24  O    2.888456   3.207629   4.291615   2.999746   3.000442
    25  C    5.097091   5.960733   6.989627   3.831751   5.041930
    26  H    6.083265   6.999015   8.014677   4.557152   5.885664
    27  C    3.968333   4.695114   5.427143   5.001523   5.963891
    28  H    4.706271   5.424304   6.010235   5.975823   7.014972
    29  O    2.691866   3.937978   4.485011   6.759487   6.757591
    30  H    2.179903   3.351921   3.722796   7.122019   6.873795
    31  H    3.074016   4.306066   4.815525   6.888284   7.133275
                   16         17         18         19         20
    16  C    0.000000
    17  H    1.103196   0.000000
    18  Fe   2.983369   3.962234   0.000000
    19  O    3.850974   4.590839   2.020572   0.000000
    20  Fe   4.989349   6.002684   3.330204   3.428367   0.000000
    21  O    5.032000   5.870017   3.383011   2.254756   2.024801
    22  O    5.969721   7.022418   3.354585   3.572351   2.108600
    23  Fe   2.982861   3.962016   3.160613   4.514350   3.329613
    24  O    3.314241   4.398072   1.877584   2.932923   1.920690
    25  C    4.641763   5.375292   2.989656   1.253809   3.013907
    26  H    5.371727   5.958443   3.959480   1.998972   3.974999
    27  C    5.885090   6.909669   2.978566   3.418722   3.102531
    28  H    6.907755   7.916398   3.956336   4.318463   4.064694
    29  O    7.144197   8.133882   5.307830   5.057368   2.169772
    30  H    7.404564   8.421285   5.669567   5.717799   2.506704
    31  H    7.417311   8.433569   5.238845   4.987733   2.513489
                   21         22         23         24         25
    21  O    0.000000
    22  O    2.852306   0.000000
    23  Fe   4.562298   4.551894   0.000000
    24  O    2.918100   2.884632   1.874973   0.000000
    25  C    1.253143   3.416165   4.894340   3.236121   0.000000
    26  H    1.999787   4.304793   5.922856   4.324611   1.103301
    27  C    3.494832   1.254779   4.863434   3.202903   3.635998
    28  H    4.395853   2.003405   5.879401   4.286173   4.506333
    29  O    3.101686   2.701221   5.299719   4.054225   4.286243
    30  H    3.885346   3.065383   5.217957   4.236883   5.064687
    31  H    3.250022   2.203078   5.675859   4.249990   4.290240
                   26         27         28         29         30
    26  H    0.000000
    27  C    4.492068   0.000000
    28  H    5.232286   1.104407   0.000000
    29  O    4.932746   3.947467   4.496581   0.000000
    30  H    5.795878   4.297991   4.809118   0.969144   0.000000
    31  H    4.919039   3.374901   3.746689   0.968755   1.532554
                   31
    31  H    0.000000
 Symmetry turned off by external request.
 Stoichiometry    C6H8Fe3O14(15)
 Framework group  C1[X(C6H8Fe3O14)]
 Deg. of freedom    87
 Full point group                 C1      NOp   1
 Rotational constants (GHZ):           0.2666995           0.2287748           0.1826328
 Leave Link  202 at Wed Feb  1 10:48:39 2023, MaxMem= 14763950080 cpu:               0.0 elap:               0.6
 (Enter /software/commercial/gaussian/g16/AVX2/g16/l122.exe)
 Counterpoise: doing full-system calculation.
 Leave Link  122 at Wed Feb  1 10:48:40 2023, MaxMem= 14763950080 cpu:               0.0 elap:               0.4
 (Enter /software/commercial/gaussian/g16/AVX2/g16/l301.exe)
 General basis read from cards:  (5D, 7F)
 Centers:       4      8     13     17     26     28     30     31
 S 3 1.00
     Exponent=  3.4061341000D+01 Coefficients=  6.0251978000D-03
     Exponent=  5.1235746000D+00 Coefficients=  4.5021094000D-02
     Exponent=  1.1646626000D+00 Coefficients=  2.0189726000D-01
 S 1 1.00
     Exponent=  3.2723041000D-01 Coefficients=  1.0000000000D+00
 S 1 1.00
     Exponent=  1.0307241000D-01 Coefficients=  1.0000000000D+00
 P 1 1.00
     Exponent=  8.0000000000D-01 Coefficients=  1.0000000000D+00
 ****
 Centers:       1      2      5      6      9     10     11     14     15     19
 Centers:      21     22     24     29
 S 6 1.00
     Exponent=  2.7032382631D+04 Coefficients=  2.1726302465D-04
     Exponent=  4.0523871392D+03 Coefficients=  1.6838662199D-03
     Exponent=  9.2232722710D+02 Coefficients=  8.7395616265D-03
     Exponent=  2.6124070989D+02 Coefficients=  3.5239968808D-02
     Exponent=  8.5354641351D+01 Coefficients=  1.1153519115D-01
     Exponent=  3.1035035245D+01 Coefficients=  2.5588953961D-01
 S 2 1.00
     Exponent=  1.2260860728D+01 Coefficients=  3.9768730901D-01
     Exponent=  4.9987076005D+00 Coefficients=  2.4627849430D-01
 S 1 1.00
     Exponent=  1.1703108158D+00 Coefficients=  1.0000000000D+00
 S 1 1.00
     Exponent=  4.6474740994D-01 Coefficients=  1.0000000000D+00
 S 1 1.00
     Exponent=  1.8504536357D-01 Coefficients=  1.0000000000D+00
 P 4 1.00
     Exponent=  6.3274954801D+01 Coefficients=  6.0685103418D-03
     Exponent=  1.4627049379D+01 Coefficients=  4.1912575824D-02
     Exponent=  4.4501223456D+00 Coefficients=  1.6153841088D-01
     Exponent=  1.5275799647D+00 Coefficients=  3.5706951311D-01
 P 1 1.00
     Exponent=  5.2935117943D-01 Coefficients=  4.4794207502D-01
 P 1 1.00
     Exponent=  1.7478421270D-01 Coefficients=  2.4446069663D-01
 D 1 1.00
     Exponent=  2.3140000000D+00 Coefficients=  1.0000000000D+00
 D 1 1.00
     Exponent=  6.4500000000D-01 Coefficients=  1.0000000000D+00
 F 1 1.00
     Exponent=  1.4280000000D+00 Coefficients=  1.0000000000D+00
 ****
 Centers:       3      7     12     16     25     27
 S 6 1.00
     Exponent=  1.3575349682D+04 Coefficients=  2.2245814352D-04
     Exponent=  2.0352333680D+03 Coefficients=  1.7232738252D-03
     Exponent=  4.6322562359D+02 Coefficients=  8.9255715314D-03
     Exponent=  1.3120019598D+02 Coefficients=  3.5727984502D-02
     Exponent=  4.2853015891D+01 Coefficients=  1.1076259931D-01
     Exponent=  1.5584185766D+01 Coefficients=  2.4295627626D-01
 S 2 1.00
     Exponent=  6.2067138508D+00 Coefficients=  4.1440263448D-01
     Exponent=  2.5764896527D+00 Coefficients=  2.3744968655D-01
 S 1 1.00
     Exponent=  5.7696339419D-01 Coefficients=  1.0000000000D+00
 S 1 1.00
     Exponent=  2.2972831358D-01 Coefficients=  1.0000000000D+00
 S 1 1.00
     Exponent=  9.5164440028D-02 Coefficients=  1.0000000000D+00
 P 4 1.00
     Exponent=  3.4697232244D+01 Coefficients=  5.3333657805D-03
     Exponent=  7.9582622826D+00 Coefficients=  3.5864109092D-02
     Exponent=  2.3780826883D+00 Coefficients=  1.4215873329D-01
     Exponent=  8.1433208183D-01 Coefficients=  3.4270471845D-01
 P 1 1.00
     Exponent=  2.8887547253D-01 Coefficients=  4.6445822433D-01
 P 1 1.00
     Exponent=  1.0056823671D-01 Coefficients=  2.4955789874D-01
 D 1 1.00
     Exponent=  1.0970000000D+00 Coefficients=  1.0000000000D+00
 D 1 1.00
     Exponent=  3.1800000000D-01 Coefficients=  1.0000000000D+00
 F 1 1.00
     Exponent=  7.6100000000D-01 Coefficients=  1.0000000000D+00
 ****
 Centers:      18     20     23
 S 8 1.00
     Exponent=  3.0078484637D+05 Coefficients=  2.2806273096D-04
     Exponent=  4.5088970557D+04 Coefficients=  1.7681788761D-03
     Exponent=  1.0262516317D+04 Coefficients=  9.1927083490D-03
     Exponent=  2.9052897293D+03 Coefficients=  3.7355495807D-02
     Exponent=  9.4611487137D+02 Coefficients=  1.2151108426D-01
     Exponent=  3.3987832894D+02 Coefficients=  2.8818881468D-01
     Exponent=  1.3194425588D+02 Coefficients=  4.1126612677D-01
     Exponent=  5.2111494077D+01 Coefficients=  2.1518583573D-01
 S 4 1.00
     Exponent=  3.2948839267D+02 Coefficients= -2.4745216477D-02
     Exponent=  1.0192332739D+02 Coefficients= -1.1683089050D-01
     Exponent=  1.6240462745D+01 Coefficients=  5.5293621136D-01
     Exponent=  6.8840675801D+00 Coefficients=  5.3601640182D-01
 S 2 1.00
     Exponent=  1.0470693782D+01 Coefficients= -2.2912708577D-01
     Exponent=  1.7360039648D+00 Coefficients=  7.1159319984D-01
 S 1 1.00
     Exponent=  7.2577288979D-01 Coefficients=  1.0000000000D+00
 S 1 1.00
     Exponent=  1.1595528203D-01 Coefficients=  1.0000000000D+00
 S 1 1.00
     Exponent=  4.1968227746D-02 Coefficients=  1.0000000000D+00
 P 6 1.00
     Exponent=  1.5853959970D+03 Coefficients=  2.3793960179D-03
     Exponent=  3.7538006499D+02 Coefficients=  1.9253154755D-02
     Exponent=  1.2031816501D+02 Coefficients=  9.0021836536D-02
     Exponent=  4.4788749031D+01 Coefficients=  2.5798172356D-01
     Exponent=  1.7829278584D+01 Coefficients=  4.1492649744D-01
     Exponent=  7.2247153786D+00 Coefficients=  2.4207474784D-01
 P 3 1.00
     Exponent=  2.8143219756D+01 Coefficients= -2.9041755152D-02
     Exponent=  3.8743241412D+00 Coefficients=  5.5312260343D-01
     Exponent=  1.5410752281D+00 Coefficients=  9.6771136842D-01
 P 1 1.00
     Exponent=  5.8285615250D-01 Coefficients=  1.0000000000D+00
 P 1 1.00
     Exponent=  1.3491500000D-01 Coefficients=  1.0000000000D+00
 D 4 1.00
     Exponent=  6.1996675034D+01 Coefficients=  1.1971972255D-02
     Exponent=  1.7873732552D+01 Coefficients=  7.3210135410D-02
     Exponent=  6.2744782934D+00 Coefficients=  2.3103094314D-01
     Exponent=  2.3552337175D+00 Coefficients=  3.9910706494D-01
 D 1 1.00
     Exponent=  8.5432239901D-01 Coefficients=  4.1391589765D-01
 D 1 1.00
     Exponent=  2.7869254413D-01 Coefficients=  2.1909269782D-01
 D 1 1.00
     Exponent=  9.1000000000D-02 Coefficients=  1.0000000000D+00
 F 1 1.00
     Exponent=  1.5980000000D+00 Coefficients=  1.0000000000D+00
 ****
 Ernie: Thresh=  0.10000D-02 Tol=  0.10000D-05 Strict=F.
   803 basis functions,  1390 primitive gaussians,   924 cartesian basis functions
   124 alpha electrons      110 beta electrons
       nuclear repulsion energy      4128.5221485603 Hartrees.
 IExCor= 4134 DFT=T Ex+Corr=M06L ExCW=0 ScaHFX=  0.000000
 ScaDFX=  1.000000  1.000000  1.000000  1.000000 ScalE2=  1.000000  1.000000
 IRadAn=      5 IRanWt=     -1 IRanGd=            0 ICorTp=0 IEmpDi=  4
 NAtoms=   31 NActive=   31 NUniq=   31 SFac= 1.00D+00 NAtFMM=   60 NAOKFM=F Big=F
 Integral buffers will be    131072 words long.
 Raffenetti 2 integral format.
 Two-electron integral symmetry is turned off.
 Leave Link  301 at Wed Feb  1 10:48:41 2023, MaxMem= 14763950080 cpu:               0.1 elap:               0.2
 (Enter /software/commercial/gaussian/g16/AVX2/g16/l302.exe)
 NPDir=0 NMtPBC=     1 NCelOv=     1 NCel=       1 NClECP=     1 NCelD=      1
         NCelK=      1 NCelE2=     1 NClLst=     1 CellRange=     0.0.
 One-electron integrals computed using PRISM.
 NBasis=   803 RedAO= T EigKep=  5.37D-04  NBF=   803
 NBsUse=   803 1.00D-06 EigRej= -1.00D+00 NBFU=   803
 Precomputing XC quadrature grid using
 IXCGrd= 4 IRadAn=           5 IRanWt=          -1 IRanGd=           0 AccXCQ= 0.00D+00.
 Generated NRdTot=       0 NPtTot=           0 NUsed=           0 NTot=          32
 NSgBfM=   918   917   917   918   918 MxSgAt=    31 MxSgA2=    31.
 Leave Link  302 at Wed Feb  1 10:48:43 2023, MaxMem= 14763950080 cpu:               2.2 elap:               2.1
 (Enter /software/commercial/gaussian/g16/AVX2/g16/l303.exe)
 DipDrv:  MaxL=1.
 Leave Link  303 at Wed Feb  1 10:48:45 2023, MaxMem= 14763950080 cpu:               0.2 elap:               0.6
 (Enter /software/commercial/gaussian/g16/AVX2/g16/l401.exe)
 ExpMin= 4.20D-02 ExpMax= 3.01D+05 ExpMxC= 2.91D+03 IAcc=3 IRadAn=         5 AccDes= 0.00D+00
 Harris functional with IExCor= 1009 and IRadAn=       5 diagonalized for initial guess.
 HarFok:  IExCor= 1009 AccDes= 0.00D+00 IRadAn=         5 IDoV= 1 UseB2=F ITyADJ=14
 ICtDFT=  3500011 ScaDFX=  1.000000  1.000000  1.000000  1.000000
 FoFCou: FMM=F IPFlag=           0 FMFlag=      100000 FMFlg1=           0
         NFxFlg=           0 DoJE=T BraDBF=F KetDBF=T FulRan=T
         wScrn=  0.000000 ICntrl=       500 IOpCl=  0 I1Cent=   200000004 NGrid=           0
         NMat0=    1 NMatS0=      1 NMatT0=    0 NMatD0=    1 NMtDS0=    0 NMtDT0=    0
 Symmetry not used in FoFCou.
 Harris En= -5076.36427523100    
 JPrj=0 DoOrth=F DoCkMO=F.
 Initial guess <Sx>= 0.0000 <Sy>= 0.0000 <Sz>= 7.0000 <S**2>=56.0000 S= 7.0000
 Leave Link  401 at Wed Feb  1 10:49:00 2023, MaxMem= 14763950080 cpu:              26.2 elap:              14.0
 (Enter /software/commercial/gaussian/g16/AVX2/g16/l502.exe)
 Two-electron integral symmetry not used.
 UHF open shell SCF:
 Using DIIS extrapolation, IDIIS=  1040.
 NGot= 14763950080 LenX= 14762230462 LenY= 14761375762
 Requested convergence on RMS density matrix=1.00D-08 within 150 cycles.
 Requested convergence on MAX density matrix=1.00D-06.
 Requested convergence on             energy=1.00D-06.
 No special actions if energy rises.
 Fock matrices will be formed incrementally for  20 cycles.

 Cycle   1  Pass 1  IDiag  1:
 FoFJK:  IHMeth= 1 ICntrl=     500 DoSepK=F KAlg= 0 I1Cent=           0 FoldK=F
 IRaf= 800000000 NMat=       1 IRICut=       1 DoRegI=T DoRafI=F ISym2E= 0 IDoP0=0 IntGTp=1.
 FoFCou: FMM=F IPFlag=           0 FMFlag=      100000 FMFlg1=           0
         NFxFlg=           0 DoJE=T BraDBF=F KetDBF=F FulRan=T
         wScrn=  0.000000 ICntrl=       500 IOpCl=  0 I1Cent=           0 NGrid=           0
         NMat0=    1 NMatS0=      1 NMatT0=    0 NMatD0=    1 NMtDS0=    0 NMtDT0=    0
 Symmetry not used in FoFCou.
 E= -5077.52997557457    
 DIIS: error= 4.86D-02 at cycle   1 NSaved=   1.
 NSaved= 1 IEnMin= 1 EnMin= -5077.52997557457     IErMin= 1 ErrMin= 4.86D-02
 ErrMax= 4.86D-02  0.00D+00 EMaxC= 1.00D-01 BMatC= 8.39D+00 BMatP= 8.39D+00
 IDIUse=3 WtCom= 5.14D-01 WtEn= 4.86D-01
 Coeff-Com:  0.100D+01
 Coeff-En:   0.100D+01
 Coeff:      0.100D+01
 Gap=     0.440 Goal=   None    Shift=    0.000
 Gap=    -0.008 Goal=   None    Shift=    0.000
 GapD=   -0.008 DampG=0.250 DampE=0.250 DampFc=0.1250 IDamp=-1.
 Damping current iteration by 1.25D-01
 RMSDP=3.40D-03 MaxDP=4.95D-01              OVMax= 9.19D-01

 Cycle   2  Pass 1  IDiag  1:
 RMSU=  4.24D-04    CP:  9.97D-01
 E= -5077.75323387606     Delta-E=       -0.223258301483 Rises=F Damp=T
 DIIS: error= 1.92D-02 at cycle   2 NSaved=   2.
 NSaved= 2 IEnMin= 2 EnMin= -5077.75323387606     IErMin= 2 ErrMin= 1.92D-02
 ErrMax= 1.92D-02  0.00D+00 EMaxC= 1.00D-01 BMatC= 2.12D+00 BMatP= 8.39D+00
 IDIUse=3 WtCom= 8.08D-01 WtEn= 1.92D-01
 Coeff-Com: -0.370D+00 0.137D+01
 Coeff-En:   0.265D+00 0.735D+00
 Coeff:     -0.248D+00 0.125D+01
 Gap=     0.138 Goal=   None    Shift=    0.000
 Gap=     0.015 Goal=   None    Shift=    0.000
 RMSDP=1.47D-03 MaxDP=1.25D-01 DE=-2.23D-01 OVMax= 9.87D-01

 Cycle   3  Pass 1  IDiag  1:
 RMSU=  1.47D-03    CP:  9.93D-01  9.32D-01
 E= -5077.30299067188     Delta-E=        0.450243204177 Rises=F Damp=F
 DIIS: error= 5.13D-02 at cycle   3 NSaved=   3.
 NSaved= 3 IEnMin= 2 EnMin= -5077.75323387606     IErMin= 2 ErrMin= 1.92D-02
 ErrMax= 5.13D-02  0.00D+00 EMaxC= 1.00D-01 BMatC= 6.94D+00 BMatP= 2.12D+00
 IDIUse=2 WtCom= 0.00D+00 WtEn= 1.00D+00
 Coeff-En:   0.000D+00 0.660D+00 0.340D+00
 Coeff:      0.000D+00 0.660D+00 0.340D+00
 Gap=     0.299 Goal=   None    Shift=    0.000
 Gap=     0.046 Goal=   None    Shift=    0.000
 RMSDP=2.43D-03 MaxDP=3.36D-01 DE= 4.50D-01 OVMax= 8.82D-01

 Cycle   4  Pass 1  IDiag  1:
 RMSU=  1.45D-03    CP:  9.89D-01  3.00D+00 -3.36D-02
 E= -5070.64076755030     Delta-E=        6.662223121581 Rises=F Damp=F
 DIIS: error= 2.45D-01 at cycle   4 NSaved=   4.
 NSaved= 4 IEnMin= 2 EnMin= -5077.75323387606     IErMin= 2 ErrMin= 1.92D-02
 ErrMax= 2.45D-01  0.00D+00 EMaxC= 1.00D-01 BMatC= 5.64D+01 BMatP= 2.12D+00
 IDIUse=2 WtCom= 0.00D+00 WtEn= 1.00D+00
 EnCoef did   100 forward-backward iterations
 Coeff-En:   0.393D+00 0.227D-01 0.403D+00 0.181D+00
 Coeff:      0.393D+00 0.227D-01 0.403D+00 0.181D+00
 Gap=     0.209 Goal=   None    Shift=    0.000
 Gap=     0.019 Goal=   None    Shift=    0.000
 RMSDP=1.68D-03 MaxDP=3.25D-01 DE= 6.66D+00 OVMax= 8.51D-01

 Cycle   5  Pass 1  IDiag  1:
 RMSU=  8.29D-04    CP:  1.00D+00  1.59D+00  2.34D-01  2.75D-01
 E= -5078.29461364095     Delta-E=       -7.653846090652 Rises=F Damp=F
 DIIS: error= 3.43D-02 at cycle   5 NSaved=   5.
 NSaved= 5 IEnMin= 5 EnMin= -5078.29461364095     IErMin= 2 ErrMin= 1.92D-02
 ErrMax= 3.43D-02  0.00D+00 EMaxC= 1.00D-01 BMatC= 1.64D+00 BMatP= 2.12D+00
 IDIUse=3 WtCom= 6.57D-01 WtEn= 3.43D-01
 EnCoef did     4 forward-backward iterations
 Coeff-Com: -0.163D+00 0.523D+00 0.250D+00-0.415D-02 0.393D+00
 Coeff-En:   0.815D-01 0.000D+00 0.147D+00 0.000D+00 0.772D+00
 Coeff:     -0.788D-01 0.344D+00 0.215D+00-0.273D-02 0.523D+00
 Gap=     0.256 Goal=   None    Shift=    0.000
 Gap=     0.027 Goal=   None    Shift=    0.000
 RMSDP=1.44D-03 MaxDP=3.44D-01 DE=-7.65D+00 OVMax= 8.83D-01

 Cycle   6  Pass 1  IDiag  1:
 RMSU=  1.23D-03    CP:  9.93D-01  1.73D+00  2.37D-01  3.40D-01  1.27D-01
 E= -5074.58079594737     Delta-E=        3.713817693579 Rises=F Damp=F
 DIIS: error= 1.70D-01 at cycle   6 NSaved=   6.
 NSaved= 6 IEnMin= 5 EnMin= -5078.29461364095     IErMin= 2 ErrMin= 1.92D-02
 ErrMax= 1.70D-01  0.00D+00 EMaxC= 1.00D-01 BMatC= 2.14D+01 BMatP= 1.64D+00
 IDIUse=2 WtCom= 0.00D+00 WtEn= 1.00D+00
 EnCoef did     4 forward-backward iterations
 Coeff-En:   0.170D-01 0.000D+00 0.159D+00 0.000D+00 0.732D+00 0.915D-01
 Coeff:      0.170D-01 0.000D+00 0.159D+00 0.000D+00 0.732D+00 0.915D-01
 Gap=     0.103 Goal=   None    Shift=    0.000
 Gap=     0.041 Goal=   None    Shift=    0.000
 RMSDP=1.07D-03 MaxDP=3.52D-01 DE= 3.71D+00 OVMax= 6.83D-01

 Cycle   7  Pass 1  IDiag  1:
 RMSU=  5.77D-04    CP:  9.97D-01  8.66D-01  3.42D-01  1.74D-01  3.91D-01
                    CP:  4.00D-01
 E= -5077.97120771607     Delta-E=       -3.390411768694 Rises=F Damp=F
 DIIS: error= 3.47D-02 at cycle   7 NSaved=   7.
 NSaved= 7 IEnMin= 5 EnMin= -5078.29461364095     IErMin= 2 ErrMin= 1.92D-02
 ErrMax= 3.47D-02  0.00D+00 EMaxC= 1.00D-01 BMatC= 3.27D+00 BMatP= 1.64D+00
 IDIUse=2 WtCom= 0.00D+00 WtEn= 1.00D+00
 Coeff-En:   0.000D+00 0.000D+00 0.000D+00 0.000D+00 0.625D+00 0.000D+00
 Coeff-En:   0.375D+00
 Coeff:      0.000D+00 0.000D+00 0.000D+00 0.000D+00 0.625D+00 0.000D+00
 Coeff:      0.375D+00
 Gap=     0.170 Goal=   None    Shift=    0.000
 Gap=     0.018 Goal=   None    Shift=    0.000
 RMSDP=7.48D-04 MaxDP=1.79D-01 DE=-3.39D+00 OVMax= 8.21D-01

 Cycle   8  Pass 1  IDiag  1:
 RMSU=  2.81D-04    CP:  9.98D-01  1.22D+00  4.02D-01  1.65D-01  7.07D-01
                    CP:  7.16D-02  1.92D-01
 E= -5078.45201568786     Delta-E=       -0.480807971791 Rises=F Damp=F
 DIIS: error= 1.74D-02 at cycle   8 NSaved=   8.
 NSaved= 8 IEnMin= 8 EnMin= -5078.45201568786     IErMin= 8 ErrMin= 1.74D-02
 ErrMax= 1.74D-02  0.00D+00 EMaxC= 1.00D-01 BMatC= 5.17D-01 BMatP= 1.64D+00
 IDIUse=3 WtCom= 8.26D-01 WtEn= 1.74D-01
 EnCoef did   100 forward-backward iterations
 Coeff-Com: -0.123D+00 0.159D+00-0.475D-01-0.114D-01 0.294D+00 0.996D-02
 Coeff-Com:  0.258D+00 0.461D+00
 Coeff-En:   0.000D+00 0.000D+00 0.000D+00 0.000D+00 0.375D+00 0.396D-02
 Coeff-En:   0.212D+00 0.409D+00
 Coeff:     -0.101D+00 0.131D+00-0.392D-01-0.941D-02 0.308D+00 0.892D-02
 Coeff:      0.250D+00 0.452D+00
 Gap=     0.193 Goal=   None    Shift=    0.000
 Gap=     0.015 Goal=   None    Shift=    0.000
 RMSDP=5.05D-04 MaxDP=1.29D-01 DE=-4.81D-01 OVMax= 5.82D-01

 Cycle   9  Pass 1  IDiag  1:
 RMSU=  3.20D-04    CP:  9.99D-01  1.29D+00  2.88D-01  2.30D-01  6.80D-01
                    CP:  2.00D-01  5.34D-01  2.04D-01
 E= -5078.46447765976     Delta-E=       -0.012461971904 Rises=F Damp=F
 DIIS: error= 1.37D-02 at cycle   9 NSaved=   9.
 NSaved= 9 IEnMin= 9 EnMin= -5078.46447765976     IErMin= 9 ErrMin= 1.37D-02
 ErrMax= 1.37D-02  0.00D+00 EMaxC= 1.00D-01 BMatC= 4.19D-01 BMatP= 5.17D-01
 IDIUse=3 WtCom= 8.63D-01 WtEn= 1.37D-01
 EnCoef did     2 forward-backward iterations
 Coeff-Com: -0.667D-01 0.799D-01-0.801D-01-0.180D-02 0.163D+00-0.435D-02
 Coeff-Com:  0.153D+00 0.512D+00 0.245D+00
 Coeff-En:   0.000D+00 0.000D+00 0.000D+00 0.000D+00 0.128D+00 0.000D+00
 Coeff-En:   0.000D+00 0.388D+00 0.484D+00
 Coeff:     -0.575D-01 0.689D-01-0.691D-01-0.155D-02 0.158D+00-0.375D-02
 Coeff:      0.132D+00 0.495D+00 0.278D+00
 Gap=     0.193 Goal=   None    Shift=    0.000
 Gap=     0.012 Goal=   None    Shift=    0.000
 RMSDP=6.22D-04 MaxDP=1.72D-01 DE=-1.25D-02 OVMax= 7.99D-01

 Cycle  10  Pass 1  IDiag  1:
 RMSU=  3.50D-04    CP:  9.99D-01  1.33D+00  2.94D-01  2.17D-01  7.91D-01
                    CP:  1.14D-01  2.99D-01  7.02D-01 -4.17D-01
 E= -5078.37580959788     Delta-E=        0.088668061879 Rises=F Damp=F
 DIIS: error= 2.09D-02 at cycle  10 NSaved=  10.
 NSaved=10 IEnMin= 9 EnMin= -5078.46447765976     IErMin= 9 ErrMin= 1.37D-02
 ErrMax= 2.09D-02  0.00D+00 EMaxC= 1.00D-01 BMatC= 9.05D-01 BMatP= 4.19D-01
 IDIUse=2 WtCom= 0.00D+00 WtEn= 1.00D+00
 EnCoef did     8 forward-backward iterations
 Coeff-En:   0.000D+00 0.000D+00 0.000D+00 0.000D+00 0.394D-01 0.000D+00
 Coeff-En:   0.000D+00 0.156D+00 0.526D+00 0.279D+00
 Coeff:      0.000D+00 0.000D+00 0.000D+00 0.000D+00 0.394D-01 0.000D+00
 Coeff:      0.000D+00 0.156D+00 0.526D+00 0.279D+00
 Gap=     0.201 Goal=   None    Shift=    0.000
 Gap=     0.010 Goal=   None    Shift=    0.000
 RMSDP=7.18D-04 MaxDP=1.81D-01 DE= 8.87D-02 OVMax= 8.98D-01

 Cycle  11  Pass 1  IDiag  1:
 RMSU=  4.28D-04    CP:  9.99D-01  1.46D+00  2.82D-01  2.26D-01  8.83D-01
                    CP:  7.09D-02  2.13D-01  2.29D-01  3.21D-01 -4.13D-01
 E= -5078.23884893567     Delta-E=        0.136960662210 Rises=F Damp=F
 DIIS: error= 2.56D-02 at cycle  11 NSaved=  11.
 NSaved=11 IEnMin= 9 EnMin= -5078.46447765976     IErMin= 9 ErrMin= 1.37D-02
 ErrMax= 2.56D-02  0.00D+00 EMaxC= 1.00D-01 BMatC= 1.70D+00 BMatP= 4.19D-01
 IDIUse=2 WtCom= 0.00D+00 WtEn= 1.00D+00
 EnCoef did     6 forward-backward iterations
 Coeff-En:   0.000D+00 0.000D+00 0.000D+00 0.000D+00 0.000D+00 0.000D+00
 Coeff-En:   0.000D+00 0.436D-02 0.495D+00 0.370D+00 0.130D+00
 Coeff:      0.000D+00 0.000D+00 0.000D+00 0.000D+00 0.000D+00 0.000D+00
 Coeff:      0.000D+00 0.436D-02 0.495D+00 0.370D+00 0.130D+00
 Gap=     0.179 Goal=   None    Shift=    0.000
 Gap=     0.011 Goal=   None    Shift=    0.000
 RMSDP=4.32D-04 MaxDP=9.19D-02 DE= 1.37D-01 OVMax= 5.37D-01

 Cycle  12  Pass 1  IDiag  1:
 RMSU=  9.66D-05    CP:  1.00D+00  1.30D+00  3.04D-01  2.09D-01  8.01D-01
                    CP:  8.95D-02  2.32D-01  7.31D-01  3.00D-01 -7.06D-02
                    CP:  1.53D-01
 E= -5078.51945185862     Delta-E=       -0.280602922943 Rises=F Damp=F
 DIIS: error= 7.66D-03 at cycle  12 NSaved=  12.
 NSaved=12 IEnMin=12 EnMin= -5078.51945185862     IErMin=12 ErrMin= 7.66D-03
 ErrMax= 7.66D-03  0.00D+00 EMaxC= 1.00D-01 BMatC= 1.32D-01 BMatP= 4.19D-01
 IDIUse=3 WtCom= 9.23D-01 WtEn= 7.66D-02
 EnCoef did     3 forward-backward iterations
 Coeff-Com:  0.510D-02-0.501D-02-0.122D-01 0.201D-02 0.136D-02-0.460D-02
 Coeff-Com: -0.562D-02-0.378D-01 0.342D+00 0.182D+00-0.819D-01 0.615D+00
 Coeff-En:   0.000D+00 0.000D+00 0.000D+00 0.000D+00 0.000D+00 0.000D+00
 Coeff-En:   0.000D+00 0.000D+00 0.352D+00 0.221D+00 0.000D+00 0.427D+00
 Coeff:      0.471D-02-0.462D-02-0.112D-01 0.185D-02 0.125D-02-0.424D-02
 Coeff:     -0.519D-02-0.349D-01 0.342D+00 0.185D+00-0.756D-01 0.601D+00
 Gap=     0.179 Goal=   None    Shift=    0.000
 Gap=     0.014 Goal=   None    Shift=    0.000
 RMSDP=2.19D-04 MaxDP=5.58D-02 DE=-2.81D-01 OVMax= 2.77D-01

 Cycle  13  Pass 1  IDiag  1:
 RMSU=  8.22D-05    CP:  1.00D+00  1.29D+00  2.80D-01  2.27D-01  7.48D-01
                    CP:  1.36D-01  3.93D-01  6.10D-01  4.18D-01  2.46D-01
                    CP: -8.70D-02  9.00D-01
 E= -5078.54019288017     Delta-E=       -0.020741021550 Rises=F Damp=F
 DIIS: error= 3.63D-03 at cycle  13 NSaved=  13.
 NSaved=13 IEnMin=13 EnMin= -5078.54019288017     IErMin=13 ErrMin= 3.63D-03
 ErrMax= 3.63D-03  0.00D+00 EMaxC= 1.00D-01 BMatC= 1.80D-02 BMatP= 1.32D-01
 IDIUse=3 WtCom= 9.64D-01 WtEn= 3.63D-02
 Coeff-Com:  0.312D-01-0.356D-01-0.265D-02-0.275D-03 0.217D-01-0.635D-03
 Coeff-Com: -0.259D-01-0.232D-01 0.821D-01 0.279D-01-0.248D-01 0.308D+00
 Coeff-Com:  0.642D+00
 Coeff-En:   0.000D+00 0.000D+00 0.000D+00 0.000D+00 0.000D+00 0.000D+00
 Coeff-En:   0.000D+00 0.000D+00 0.000D+00 0.000D+00 0.000D+00 0.245D+00
 Coeff-En:   0.755D+00
 Coeff:      0.301D-01-0.343D-01-0.255D-02-0.265D-03 0.209D-01-0.612D-03
 Coeff:     -0.250D-01-0.224D-01 0.791D-01 0.269D-01-0.239D-01 0.306D+00
 Coeff:      0.646D+00
 Gap=     0.180 Goal=   None    Shift=    0.000
 Gap=     0.015 Goal=   None    Shift=    0.000
 RMSDP=9.08D-05 MaxDP=2.05D-02 DE=-2.07D-02 OVMax= 1.17D-01

 Cycle  14  Pass 1  IDiag  1:
 RMSU=  2.30D-05    CP:  1.00D+00  1.30D+00  2.80D-01  2.24D-01  7.81D-01
                    CP:  1.14D-01  3.19D-01  6.20D-01  4.29D-01  1.38D-01
                    CP:  1.61D-03  1.06D+00  5.77D-01
 E= -5078.54296108173     Delta-E=       -0.002768201564 Rises=F Damp=F
 DIIS: error= 1.09D-03 at cycle  14 NSaved=  14.
 NSaved=14 IEnMin=14 EnMin= -5078.54296108173     IErMin=14 ErrMin= 1.09D-03
 ErrMax= 1.09D-03  0.00D+00 EMaxC= 1.00D-01 BMatC= 3.94D-03 BMatP= 1.80D-02
 IDIUse=3 WtCom= 9.89D-01 WtEn= 1.09D-02
 Coeff-Com:  0.179D-01-0.208D-01-0.518D-02-0.167D-03 0.867D-02 0.397D-03
 Coeff-Com: -0.915D-02 0.258D-01 0.191D-01 0.517D-02-0.106D-01 0.878D-01
 Coeff-Com:  0.402D+00 0.479D+00
 Coeff-En:   0.000D+00 0.000D+00 0.000D+00 0.000D+00 0.000D+00 0.000D+00
 Coeff-En:   0.000D+00 0.000D+00 0.000D+00 0.000D+00 0.000D+00 0.000D+00
 Coeff-En:   0.278D+00 0.722D+00
 Coeff:      0.177D-01-0.206D-01-0.512D-02-0.166D-03 0.857D-02 0.392D-03
 Coeff:     -0.905D-02 0.255D-01 0.189D-01 0.512D-02-0.105D-01 0.869D-01
 Coeff:      0.401D+00 0.481D+00
 Gap=     0.179 Goal=   None    Shift=    0.000
 Gap=     0.015 Goal=   None    Shift=    0.000
 RMSDP=3.06D-05 MaxDP=6.25D-03 DE=-2.77D-03 OVMax= 3.61D-02

 Cycle  15  Pass 1  IDiag  1:
 RMSU=  1.04D-05    CP:  1.00D+00  1.29D+00  2.82D-01  2.23D-01  7.67D-01
                    CP:  1.21D-01  3.41D-01  6.26D-01  4.26D-01  1.70D-01
                    CP: -2.70D-02  1.03D+00  7.00D-01  7.31D-01
 E= -5078.54364913338     Delta-E=       -0.000688051647 Rises=F Damp=F
 DIIS: error= 4.33D-04 at cycle  15 NSaved=  15.
 NSaved=15 IEnMin=15 EnMin= -5078.54364913338     IErMin=15 ErrMin= 4.33D-04
 ErrMax= 4.33D-04  0.00D+00 EMaxC= 1.00D-01 BMatC= 4.33D-04 BMatP= 3.94D-03
 IDIUse=3 WtCom= 9.96D-01 WtEn= 4.33D-03
 Coeff-Com:  0.912D-02-0.110D-01-0.319D-02-0.710D-04 0.164D-02 0.208D-03
 Coeff-Com: -0.171D-02 0.248D-01-0.296D-02 0.385D-02-0.188D-02 0.494D-02
 Coeff-Com:  0.158D+00 0.348D+00 0.470D+00
 Coeff-En:   0.000D+00 0.000D+00 0.000D+00 0.000D+00 0.000D+00 0.000D+00
 Coeff-En:   0.000D+00 0.000D+00 0.000D+00 0.000D+00 0.000D+00 0.000D+00
 Coeff-En:   0.000D+00 0.379D-01 0.962D+00
 Coeff:      0.908D-02-0.109D-01-0.318D-02-0.707D-04 0.163D-02 0.207D-03
 Coeff:     -0.171D-02 0.247D-01-0.295D-02 0.384D-02-0.187D-02 0.492D-02
 Coeff:      0.157D+00 0.346D+00 0.472D+00
 Gap=     0.179 Goal=   None    Shift=    0.000
 Gap=     0.014 Goal=   None    Shift=    0.000
 RMSDP=8.39D-06 MaxDP=1.34D-03 DE=-6.88D-04 OVMax= 8.62D-03

 Cycle  16  Pass 1  IDiag  1:
 RMSU=  6.05D-06    CP:  1.00D+00  1.29D+00  2.82D-01  2.23D-01  7.68D-01
                    CP:  1.20D-01  3.38D-01  6.30D-01  4.18D-01  1.71D-01
                    CP: -2.13D-02  1.06D+00  6.89D-01  8.68D-01  9.71D-01
 E= -5078.54371053963     Delta-E=       -0.000061406252 Rises=F Damp=F
 DIIS: error= 2.22D-04 at cycle  16 NSaved=  16.
 NSaved=16 IEnMin=16 EnMin= -5078.54371053963     IErMin=16 ErrMin= 2.22D-04
 ErrMax= 2.22D-04  0.00D+00 EMaxC= 1.00D-01 BMatC= 1.05D-04 BMatP= 4.33D-04
 IDIUse=3 WtCom= 9.98D-01 WtEn= 2.22D-03
 Coeff-Com:  0.274D-02-0.337D-02-0.633D-03-0.594D-04-0.533D-03-0.201D-04
 Coeff-Com:  0.837D-03 0.116D-01-0.710D-02 0.440D-02 0.115D-02-0.188D-01
 Coeff-Com:  0.143D-03 0.979D-01 0.309D+00 0.603D+00
 Coeff-En:   0.000D+00 0.000D+00 0.000D+00 0.000D+00 0.000D+00 0.000D+00
 Coeff-En:   0.000D+00 0.000D+00 0.000D+00 0.000D+00 0.000D+00 0.000D+00
 Coeff-En:   0.000D+00 0.000D+00 0.000D+00 0.100D+01
 Coeff:      0.274D-02-0.336D-02-0.631D-03-0.592D-04-0.532D-03-0.200D-04
 Coeff:      0.835D-03 0.116D-01-0.709D-02 0.439D-02 0.114D-02-0.187D-01
 Coeff:      0.142D-03 0.976D-01 0.308D+00 0.604D+00
 Gap=     0.179 Goal=   None    Shift=    0.000
 Gap=     0.014 Goal=   None    Shift=    0.000
 RMSDP=7.72D-06 MaxDP=1.18D-03 DE=-6.14D-05 OVMax= 9.67D-03

 Cycle  17  Pass 1  IDiag  1:
 RMSU=  3.43D-06    CP:  1.00D+00  1.29D+00  2.83D-01  2.23D-01  7.69D-01
                    CP:  1.19D-01  3.36D-01  6.32D-01  4.08D-01  1.77D-01
                    CP: -1.84D-02  1.08D+00  6.86D-01  9.88D-01  1.27D+00
                    CP:  1.17D+00
 E= -5078.54372885511     Delta-E=       -0.000018315477 Rises=F Damp=F
 DIIS: error= 7.32D-05 at cycle  17 NSaved=  17.
 NSaved=17 IEnMin=17 EnMin= -5078.54372885511     IErMin=17 ErrMin= 7.32D-05
 ErrMax= 7.32D-05  0.00D+00 EMaxC= 1.00D-01 BMatC= 2.11D-05 BMatP= 1.05D-04
 IDIUse=1 WtCom= 1.00D+00 WtEn= 0.00D+00
 Coeff-Com:  0.291D-03-0.326D-03 0.197D-03-0.486D-04-0.127D-03-0.402D-04
 Coeff-Com:  0.868D-03 0.320D-02-0.204D-02 0.150D-02 0.525D-05-0.110D-01
 Coeff-Com: -0.340D-01-0.271D-01 0.807D-01 0.426D+00 0.562D+00
 Coeff:      0.291D-03-0.326D-03 0.197D-03-0.486D-04-0.127D-03-0.402D-04
 Coeff:      0.868D-03 0.320D-02-0.204D-02 0.150D-02 0.525D-05-0.110D-01
 Coeff:     -0.340D-01-0.271D-01 0.807D-01 0.426D+00 0.562D+00
 Gap=     0.179 Goal=   None    Shift=    0.000
 Gap=     0.014 Goal=   None    Shift=    0.000
 RMSDP=4.89D-06 MaxDP=5.14D-04 DE=-1.83D-05 OVMax= 6.18D-03

 Cycle  18  Pass 1  IDiag  1:
 RMSU=  1.71D-06    CP:  1.00D+00  1.29D+00  2.83D-01  2.23D-01  7.69D-01
                    CP:  1.19D-01  3.35D-01  6.31D-01  4.07D-01  1.78D-01
                    CP: -1.51D-02  1.10D+00  6.80D-01  1.08D+00  1.47D+00
                    CP:  1.53D+00  1.19D+00
 E= -5078.54373069971     Delta-E=       -0.000001844601 Rises=F Damp=F
 DIIS: error= 1.21D-04 at cycle  18 NSaved=  18.
 NSaved=18 IEnMin=18 EnMin= -5078.54373069971     IErMin=17 ErrMin= 7.32D-05
 ErrMax= 1.21D-04  0.00D+00 EMaxC= 1.00D-01 BMatC= 1.85D-05 BMatP= 2.11D-05
 IDIUse=1 WtCom= 1.00D+00 WtEn= 0.00D+00
 Coeff-Com: -0.395D-03 0.535D-03 0.103D-03-0.209D-04 0.376D-03-0.129D-04
 Coeff-Com:  0.423D-03 0.605D-03 0.164D-02-0.123D-02-0.687D-03-0.250D-02
 Coeff-Com: -0.923D-02-0.524D-01-0.267D-01 0.113D+00 0.339D+00 0.638D+00
 Coeff:     -0.395D-03 0.535D-03 0.103D-03-0.209D-04 0.376D-03-0.129D-04
 Coeff:      0.423D-03 0.605D-03 0.164D-02-0.123D-02-0.687D-03-0.250D-02
 Coeff:     -0.923D-02-0.524D-01-0.267D-01 0.113D+00 0.339D+00 0.638D+00
 Gap=     0.179 Goal=   None    Shift=    0.000
 Gap=     0.014 Goal=   None    Shift=    0.000
 RMSDP=4.12D-06 MaxDP=6.82D-04 DE=-1.84D-06 OVMax= 5.34D-03

 Cycle  19  Pass 1  IDiag  1:
 RMSU=  9.42D-07    CP:  1.00D+00  1.29D+00  2.83D-01  2.23D-01  7.68D-01
                    CP:  1.19D-01  3.35D-01  6.31D-01  4.05D-01  1.82D-01
                    CP: -1.43D-02  1.12D+00  6.86D-01  1.14D+00  1.67D+00
                    CP:  1.84D+00  1.59D+00  1.20D+00
 E= -5078.54373388110     Delta-E=       -0.000003181394 Rises=F Damp=F
 DIIS: error= 8.19D-05 at cycle  19 NSaved=  19.
 NSaved=19 IEnMin=19 EnMin= -5078.54373388110     IErMin=17 ErrMin= 7.32D-05
 ErrMax= 8.19D-05  0.00D+00 EMaxC= 1.00D-01 BMatC= 9.12D-06 BMatP= 1.85D-05
 IDIUse=1 WtCom= 1.00D+00 WtEn= 0.00D+00
 Coeff-Com: -0.481D-03 0.615D-03 0.206D-03-0.826D-05 0.223D-03-0.237D-04
 Coeff-Com:  0.103D-03-0.152D-02 0.215D-02-0.192D-02-0.291D-03 0.210D-02
 Coeff-Com:  0.694D-02-0.378D-01-0.325D-01-0.133D-01 0.640D-01 0.416D+00
 Coeff-Com:  0.595D+00
 Coeff:     -0.481D-03 0.615D-03 0.206D-03-0.826D-05 0.223D-03-0.237D-04
 Coeff:      0.103D-03-0.152D-02 0.215D-02-0.192D-02-0.291D-03 0.210D-02
 Coeff:      0.694D-02-0.378D-01-0.325D-01-0.133D-01 0.640D-01 0.416D+00
 Coeff:      0.595D+00
 Gap=     0.178 Goal=   None    Shift=    0.000
 Gap=     0.014 Goal=   None    Shift=    0.000
 RMSDP=3.21D-06 MaxDP=4.17D-04 DE=-3.18D-06 OVMax= 4.23D-03

 Cycle  20  Pass 1  IDiag  1:
 RMSU=  6.99D-07    CP:  1.00D+00  1.29D+00  2.83D-01  2.23D-01  7.68D-01
                    CP:  1.20D-01  3.35D-01  6.30D-01  4.05D-01  1.83D-01
                    CP: -1.29D-02  1.13D+00  6.89D-01  1.19D+00  1.82D+00
                    CP:  2.08D+00  1.91D+00  1.59D+00  1.14D+00
 E= -5078.54373528499     Delta-E=       -0.000001403889 Rises=F Damp=F
 DIIS: error= 6.13D-05 at cycle  20 NSaved=  20.
 NSaved=20 IEnMin=20 EnMin= -5078.54373528499     IErMin=20 ErrMin= 6.13D-05
 ErrMax= 6.13D-05  0.00D+00 EMaxC= 1.00D-01 BMatC= 6.15D-06 BMatP= 9.12D-06
 IDIUse=1 WtCom= 1.00D+00 WtEn= 0.00D+00
 Coeff-Com: -0.306D-03 0.333D-03 0.277D-03 0.679D-05-0.368D-03-0.189D-04
 Coeff-Com: -0.262D-04-0.312D-02 0.103D-02-0.149D-02 0.783D-04 0.529D-02
 Coeff-Com:  0.127D-01 0.105D-01 0.108D-01-0.591D-01-0.263D+00-0.235D+00
 Coeff-Com:  0.520D+00 0.100D+01
 Coeff:     -0.306D-03 0.333D-03 0.277D-03 0.679D-05-0.368D-03-0.189D-04
 Coeff:     -0.262D-04-0.312D-02 0.103D-02-0.149D-02 0.783D-04 0.529D-02
 Coeff:      0.127D-01 0.105D-01 0.108D-01-0.591D-01-0.263D+00-0.235D+00
 Coeff:      0.520D+00 0.100D+01
 Gap=     0.178 Goal=   None    Shift=    0.000
 Gap=     0.014 Goal=   None    Shift=    0.000
 RMSDP=5.40D-06 MaxDP=7.09D-04 DE=-1.40D-06 OVMax= 7.18D-03

 Cycle  21  Pass 1  IDiag  1:
 Restarting incremental Fock formation.
 E= -5078.54373685003     Delta-E=       -0.000001565038 Rises=F Damp=F
 DIIS: error= 3.78D-05 at cycle  21 NSaved=  20.
 NSaved=20 IEnMin=20 EnMin= -5078.54373685003     IErMin=20 ErrMin= 3.78D-05
 ErrMax= 3.78D-05  0.00D+00 EMaxC= 1.00D-01 BMatC= 2.74D-06 BMatP= 6.15D-06
 IDIUse=1 WtCom= 1.00D+00 WtEn= 0.00D+00
 Coeff-Com: -0.484D-04 0.263D-04 0.125D-03-0.400D-03-0.994D-05 0.753D-04
 Coeff-Com: -0.171D-02-0.398D-04-0.599D-03 0.767D-04 0.361D-02 0.130D-02
 Coeff-Com:  0.341D-01 0.340D-01-0.183D-01-0.253D+00-0.461D+00-0.193D-01
 Coeff-Com:  0.847D+00 0.834D+00
 Coeff:     -0.484D-04 0.263D-04 0.125D-03-0.400D-03-0.994D-05 0.753D-04
 Coeff:     -0.171D-02-0.398D-04-0.599D-03 0.767D-04 0.361D-02 0.130D-02
 Coeff:      0.341D-01 0.340D-01-0.183D-01-0.253D+00-0.461D+00-0.193D-01
 Coeff:      0.847D+00 0.834D+00
 Gap=     0.178 Goal=   None    Shift=    0.000
 Gap=     0.014 Goal=   None    Shift=    0.000
 RMSDP=4.75D-06 MaxDP=5.84D-04 DE=-1.57D-06 OVMax= 6.30D-03

 Cycle  22  Pass 1  IDiag  1:
 RMSU=  4.75D-06    CP:  1.00D+00
 E= -5078.54373767864     Delta-E=       -0.000000828613 Rises=F Damp=F
 DIIS: error= 2.28D-05 at cycle  22 NSaved=  20.
 NSaved=20 IEnMin=20 EnMin= -5078.54373767864     IErMin=20 ErrMin= 2.28D-05
 ErrMax= 2.28D-05  0.00D+00 EMaxC= 1.00D-01 BMatC= 7.01D-07 BMatP= 2.74D-06
 IDIUse=1 WtCom= 1.00D+00 WtEn= 0.00D+00
 Coeff-Com:  0.356D-04-0.466D-04 0.422D-04-0.940D-04 0.140D-04-0.448D-03
 Coeff-Com: -0.155D-03-0.820D-06 0.481D-04 0.101D-02-0.544D-02 0.128D-01
 Coeff-Com:  0.111D-01 0.708D-02-0.548D-01-0.172D+00-0.167D+00 0.249D+00
 Coeff-Com:  0.517D+00 0.603D+00
 Coeff:      0.356D-04-0.466D-04 0.422D-04-0.940D-04 0.140D-04-0.448D-03
 Coeff:     -0.155D-03-0.820D-06 0.481D-04 0.101D-02-0.544D-02 0.128D-01
 Coeff:      0.111D-01 0.708D-02-0.548D-01-0.172D+00-0.167D+00 0.249D+00
 Coeff:      0.517D+00 0.603D+00
 Gap=     0.178 Goal=   None    Shift=    0.000
 Gap=     0.014 Goal=   None    Shift=    0.000
 RMSDP=1.29D-06 MaxDP=1.68D-04 DE=-8.29D-07 OVMax= 1.70D-03

 Cycle  23  Pass 1  IDiag  1:
 RMSU=  6.47D-07    CP:  1.00D+00  1.23D+00
 E= -5078.54373787491     Delta-E=       -0.000000196273 Rises=F Damp=F
 DIIS: error= 5.94D-06 at cycle  23 NSaved=  20.
 NSaved=20 IEnMin=20 EnMin= -5078.54373787491     IErMin=20 ErrMin= 5.94D-06
 ErrMax= 5.94D-06  0.00D+00 EMaxC= 1.00D-01 BMatC= 7.88D-08 BMatP= 7.01D-07
 IDIUse=1 WtCom= 1.00D+00 WtEn= 0.00D+00
 Coeff-Com: -0.153D-04 0.198D-04-0.694D-05 0.110D-04-0.224D-04-0.107D-03
 Coeff-Com:  0.947D-04 0.209D-04 0.343D-05-0.324D-02 0.156D-02 0.102D-03
 Coeff-Com:  0.408D-02 0.205D-02-0.315D-01-0.808D-01 0.238D-01 0.168D+00
 Coeff-Com:  0.359D+00 0.557D+00
 Coeff:     -0.153D-04 0.198D-04-0.694D-05 0.110D-04-0.224D-04-0.107D-03
 Coeff:      0.947D-04 0.209D-04 0.343D-05-0.324D-02 0.156D-02 0.102D-03
 Coeff:      0.408D-02 0.205D-02-0.315D-01-0.808D-01 0.238D-01 0.168D+00
 Coeff:      0.359D+00 0.557D+00
 Gap=     0.178 Goal=   None    Shift=    0.000
 Gap=     0.014 Goal=   None    Shift=    0.000
 RMSDP=6.60D-07 MaxDP=1.11D-04 DE=-1.96D-07 OVMax= 8.71D-04

 Cycle  24  Pass 1  IDiag  1:
 RMSU=  4.34D-07    CP:  1.00D+00  1.32D+00  1.40D+00
 E= -5078.54373792129     Delta-E=       -0.000000046375 Rises=F Damp=F
 DIIS: error= 3.74D-06 at cycle  24 NSaved=  20.
 NSaved=20 IEnMin=20 EnMin= -5078.54373792129     IErMin=20 ErrMin= 3.74D-06
 ErrMax= 3.74D-06  0.00D+00 EMaxC= 1.00D-01 BMatC= 3.91D-08 BMatP= 7.88D-08
 IDIUse=1 WtCom= 1.00D+00 WtEn= 0.00D+00
 Coeff-Com:  0.328D-05 0.184D-04-0.170D-04 0.467D-04-0.239D-04 0.917D-04
 Coeff-Com:  0.526D-06-0.218D-03-0.470D-04-0.345D-02-0.423D-02 0.650D-04
 Coeff-Com:  0.244D-01 0.410D-01 0.116D-02-0.845D-01-0.813D-01 0.167D-01
 Coeff-Com:  0.446D+00 0.645D+00
 Coeff:      0.328D-05 0.184D-04-0.170D-04 0.467D-04-0.239D-04 0.917D-04
 Coeff:      0.526D-06-0.218D-03-0.470D-04-0.345D-02-0.423D-02 0.650D-04
 Coeff:      0.244D-01 0.410D-01 0.116D-02-0.845D-01-0.813D-01 0.167D-01
 Coeff:      0.446D+00 0.645D+00
 Gap=     0.178 Goal=   None    Shift=    0.000
 Gap=     0.014 Goal=   None    Shift=    0.000
 RMSDP=8.82D-07 MaxDP=1.51D-04 DE=-4.64D-08 OVMax= 1.17D-03

 Cycle  25  Pass 1  IDiag  1:
 RMSU=  1.68D-07    CP:  1.00D+00  1.44D+00  1.98D+00  2.31D+00
 E= -5078.54373793779     Delta-E=       -0.000000016496 Rises=F Damp=F
 DIIS: error= 1.07D-05 at cycle  25 NSaved=  20.
 NSaved=20 IEnMin=20 EnMin= -5078.54373793779     IErMin=19 ErrMin= 3.74D-06
 ErrMax= 1.07D-05  0.00D+00 EMaxC= 1.00D-01 BMatC= 1.98D-07 BMatP= 3.91D-08
 IDIUse=1 WtCom= 1.00D+00 WtEn= 0.00D+00
 Coeff-Com:  0.416D-06 0.130D-04 0.129D-03 0.890D-04-0.184D-04 0.402D-04
 Coeff-Com: -0.513D-03 0.870D-03-0.559D-02-0.554D-02-0.464D-03 0.407D-01
 Coeff-Com:  0.842D-01 0.403D-01-0.144D+00-0.242D+00-0.292D+00 0.131D+00
 Coeff-Com:  0.692D+00 0.701D+00
 Coeff:      0.416D-06 0.130D-04 0.129D-03 0.890D-04-0.184D-04 0.402D-04
 Coeff:     -0.513D-03 0.870D-03-0.559D-02-0.554D-02-0.464D-03 0.407D-01
 Coeff:      0.842D-01 0.403D-01-0.144D+00-0.242D+00-0.292D+00 0.131D+00
 Coeff:      0.692D+00 0.701D+00
 Gap=     0.178 Goal=   None    Shift=    0.000
 Gap=     0.014 Goal=   None    Shift=    0.000
 RMSDP=1.35D-06 MaxDP=2.38D-04 DE=-1.65D-08 OVMax= 1.79D-03

 Cycle  26  Pass 1  IDiag  1:
 RMSU=  5.44D-07    CP:  1.00D+00  1.62D+00  2.89D+00  3.00D+00  1.89D+00
 E= -5078.54373799135     Delta-E=       -0.000000053562 Rises=F Damp=F
 DIIS: error= 1.12D-05 at cycle  26 NSaved=  20.
 NSaved=20 IEnMin=20 EnMin= -5078.54373799135     IErMin=18 ErrMin= 3.74D-06
 ErrMax= 1.12D-05  0.00D+00 EMaxC= 1.00D-01 BMatC= 2.45D-07 BMatP= 3.91D-08
 IDIUse=1 WtCom= 1.00D+00 WtEn= 0.00D+00
 Coeff-Com: -0.419D-04-0.641D-04 0.216D-03-0.899D-04 0.131D-04 0.236D-03
 Coeff-Com: -0.492D-03-0.158D-02-0.258D-02 0.983D-03 0.186D-01 0.426D-01
 Coeff-Com:  0.187D-01-0.372D-01-0.141D+00-0.227D+00 0.917D-01 0.846D-01
 Coeff-Com: -0.130D+00 0.128D+01
 Coeff:     -0.419D-04-0.641D-04 0.216D-03-0.899D-04 0.131D-04 0.236D-03
 Coeff:     -0.492D-03-0.158D-02-0.258D-02 0.983D-03 0.186D-01 0.426D-01
 Coeff:      0.187D-01-0.372D-01-0.141D+00-0.227D+00 0.917D-01 0.846D-01
 Coeff:     -0.130D+00 0.128D+01
 Gap=     0.178 Goal=   None    Shift=    0.000
 Gap=     0.014 Goal=   None    Shift=    0.000
 RMSDP=1.43D-06 MaxDP=2.59D-04 DE=-5.36D-08 OVMax= 1.90D-03

 Cycle  27  Pass 1  IDiag  1:
 RMSU=  7.50D-07    CP:  1.00D+00  1.77D+00  3.00D+00  3.00D+00  2.93D+00
                    CP:  2.67D+00
 E= -5078.54373806192     Delta-E=       -0.000000070570 Rises=F Damp=F
 DIIS: error= 9.66D-06 at cycle  27 NSaved=  20.
 NSaved=20 IEnMin=20 EnMin= -5078.54373806192     IErMin=17 ErrMin= 3.74D-06
 ErrMax= 9.66D-06  0.00D+00 EMaxC= 1.00D-01 BMatC= 1.66D-07 BMatP= 3.91D-08
 IDIUse=1 WtCom= 1.00D+00 WtEn= 0.00D+00
 Coeff-Com: -0.405D-04-0.976D-04 0.140D-03-0.828D-04 0.623D-03-0.168D-02
 Coeff-Com:  0.378D-02 0.367D-02 0.620D-02-0.108D-01-0.213D-01-0.221D-01
 Coeff-Com:  0.766D-01 0.385D-01 0.684D-01 0.230D+00-0.502D+00-0.139D+01
 Coeff-Com:  0.124D+01 0.129D+01
 Coeff:     -0.405D-04-0.976D-04 0.140D-03-0.828D-04 0.623D-03-0.168D-02
 Coeff:      0.378D-02 0.367D-02 0.620D-02-0.108D-01-0.213D-01-0.221D-01
 Coeff:      0.766D-01 0.385D-01 0.684D-01 0.230D+00-0.502D+00-0.139D+01
 Coeff:      0.124D+01 0.129D+01
 Gap=     0.178 Goal=   None    Shift=    0.000
 Gap=     0.014 Goal=   None    Shift=    0.000
 RMSDP=2.24D-06 MaxDP=4.03D-04 DE=-7.06D-08 OVMax= 2.96D-03

 Cycle  28  Pass 1  IDiag  1:
 RMSU=  1.40D-06    CP:  1.00D+00  1.97D+00  3.00D+00  3.00D+00  3.00D+00
                    CP:  3.00D+00  2.69D+00
 E= -5078.54373814152     Delta-E=       -0.000000079606 Rises=F Damp=F
 DIIS: error= 5.54D-06 at cycle  28 NSaved=  20.
 NSaved=20 IEnMin=20 EnMin= -5078.54373814152     IErMin=16 ErrMin= 3.74D-06
 ErrMax= 5.54D-06  0.00D+00 EMaxC= 1.00D-01 BMatC= 6.08D-08 BMatP= 3.91D-08
 IDIUse=1 WtCom= 1.00D+00 WtEn= 0.00D+00
 Coeff-Com:  0.999D-06 0.255D-04-0.239D-04 0.342D-03-0.139D-02 0.351D-02
 Coeff-Com:  0.455D-02 0.731D-02-0.131D-01-0.326D-01-0.349D-01 0.674D-01
 Coeff-Com:  0.972D-01 0.242D+00 0.284D+00-0.483D+00-0.146D+01 0.310D+00
 Coeff-Com:  0.133D+01 0.677D+00
 Coeff:      0.999D-06 0.255D-04-0.239D-04 0.342D-03-0.139D-02 0.351D-02
 Coeff:      0.455D-02 0.731D-02-0.131D-01-0.326D-01-0.349D-01 0.674D-01
 Coeff:      0.972D-01 0.242D+00 0.284D+00-0.483D+00-0.146D+01 0.310D+00
 Coeff:      0.133D+01 0.677D+00
 Gap=     0.178 Goal=   None    Shift=    0.000
 Gap=     0.014 Goal=   None    Shift=    0.000
 RMSDP=1.63D-06 MaxDP=2.92D-04 DE=-7.96D-08 OVMax= 2.16D-03

 Cycle  29  Pass 1  IDiag  1:
 RMSU=  6.93D-07    CP:  1.00D+00  2.11D+00  3.00D+00  3.00D+00  3.00D+00
                    CP:  3.00D+00  3.00D+00  1.83D+00
 E= -5078.54373817309     Delta-E=       -0.000000031567 Rises=F Damp=F
 DIIS: error= 2.83D-06 at cycle  29 NSaved=  20.
 NSaved=20 IEnMin=20 EnMin= -5078.54373817309     IErMin=20 ErrMin= 2.83D-06
 ErrMax= 2.83D-06  0.00D+00 EMaxC= 1.00D-01 BMatC= 1.21D-08 BMatP= 3.91D-08
 IDIUse=1 WtCom= 1.00D+00 WtEn= 0.00D+00
 Coeff-Com:  0.252D-04-0.176D-04 0.497D-04-0.407D-03 0.156D-02 0.270D-02
 Coeff-Com:  0.370D-02-0.805D-02-0.211D-01-0.177D-01 0.253D-01 0.569D-01
 Coeff-Com:  0.160D+00 0.146D+00-0.178D+00-0.648D+00-0.163D+00 0.559D+00
 Coeff-Com:  0.488D+00 0.593D+00
 Coeff:      0.252D-04-0.176D-04 0.497D-04-0.407D-03 0.156D-02 0.270D-02
 Coeff:      0.370D-02-0.805D-02-0.211D-01-0.177D-01 0.253D-01 0.569D-01
 Coeff:      0.160D+00 0.146D+00-0.178D+00-0.648D+00-0.163D+00 0.559D+00
 Coeff:      0.488D+00 0.593D+00
 Gap=     0.178 Goal=   None    Shift=    0.000
 Gap=     0.014 Goal=   None    Shift=    0.000
 RMSDP=5.73D-07 MaxDP=1.02D-04 DE=-3.16D-08 OVMax= 7.59D-04

 Cycle  30  Pass 1  IDiag  1:
 RMSU=  5.91D-08    CP:  1.00D+00  2.17D+00  3.00D+00  3.00D+00  3.00D+00
                    CP:  3.00D+00  3.00D+00  2.13D+00  1.42D+00
 E= -5078.54373817917     Delta-E=       -0.000000006075 Rises=F Damp=F
 DIIS: error= 4.54D-07 at cycle  30 NSaved=  20.
 NSaved=20 IEnMin=20 EnMin= -5078.54373817917     IErMin=20 ErrMin= 4.54D-07
 ErrMax= 4.54D-07  0.00D+00 EMaxC= 1.00D-01 BMatC= 1.14D-09 BMatP= 1.21D-08
 IDIUse=1 WtCom= 1.00D+00 WtEn= 0.00D+00
 Coeff-Com: -0.179D-04-0.740D-04 0.331D-03-0.341D-03-0.291D-03-0.131D-02
 Coeff-Com: -0.128D-02-0.164D-02 0.432D-02-0.630D-02-0.998D-04-0.332D-02
 Coeff-Com: -0.465D-01 0.601D-01 0.205D+00-0.159D+00-0.207D+00-0.171D-01
 Coeff-Com:  0.266D+00 0.909D+00
 Coeff:     -0.179D-04-0.740D-04 0.331D-03-0.341D-03-0.291D-03-0.131D-02
 Coeff:     -0.128D-02-0.164D-02 0.432D-02-0.630D-02-0.998D-04-0.332D-02
 Coeff:     -0.465D-01 0.601D-01 0.205D+00-0.159D+00-0.207D+00-0.171D-01
 Coeff:      0.266D+00 0.909D+00
 Gap=     0.178 Goal=   None    Shift=    0.000
 Gap=     0.014 Goal=   None    Shift=    0.000
 RMSDP=3.59D-07 MaxDP=6.26D-05 DE=-6.08D-09 OVMax= 4.76D-04

 Cycle  31  Pass 1  IDiag  1:
 RMSU=  4.97D-08    CP:  1.00D+00  2.20D+00  3.00D+00  3.00D+00  3.00D+00
                    CP:  3.00D+00  3.00D+00  2.31D+00  1.69D+00  1.92D+00
 E= -5078.54373818068     Delta-E=       -0.000000001510 Rises=F Damp=F
 DIIS: error= 5.14D-07 at cycle  31 NSaved=  20.
 NSaved=20 IEnMin=20 EnMin= -5078.54373818068     IErMin=19 ErrMin= 4.54D-07
 ErrMax= 5.14D-07  0.00D+00 EMaxC= 1.00D-01 BMatC= 9.81D-10 BMatP= 1.14D-09
 IDIUse=1 WtCom= 1.00D+00 WtEn= 0.00D+00
 Coeff-Com: -0.704D-04 0.199D-03-0.744D-03-0.109D-02-0.152D-02 0.322D-02
 Coeff-Com:  0.727D-02 0.732D-02-0.106D-01-0.153D-01-0.578D-01-0.967D-01
 Coeff-Com:  0.646D-01 0.344D+00 0.122D-01-0.312D+00-0.193D+00-0.593D-01
 Coeff-Com:  0.619D+00 0.691D+00
 Coeff:     -0.704D-04 0.199D-03-0.744D-03-0.109D-02-0.152D-02 0.322D-02
 Coeff:      0.727D-02 0.732D-02-0.106D-01-0.153D-01-0.578D-01-0.967D-01
 Coeff:      0.646D-01 0.344D+00 0.122D-01-0.312D+00-0.193D+00-0.593D-01
 Coeff:      0.619D+00 0.691D+00
 Gap=     0.178 Goal=   None    Shift=    0.000
 Gap=     0.014 Goal=   None    Shift=    0.000
 RMSDP=1.89D-07 MaxDP=3.13D-05 DE=-1.51D-09 OVMax= 2.51D-04

 Cycle  32  Pass 1  IDiag  1:
 RMSU=  1.81D-08    CP:  1.00D+00  2.21D+00  3.00D+00  3.00D+00  3.00D+00
                    CP:  3.00D+00  3.00D+00  2.40D+00  1.86D+00  2.56D+00
                    CP:  1.61D+00
 E= -5078.54373818113     Delta-E=       -0.000000000458 Rises=F Damp=F
 DIIS: error= 7.62D-07 at cycle  32 NSaved=  20.
 NSaved=20 IEnMin=20 EnMin= -5078.54373818113     IErMin=18 ErrMin= 4.54D-07
 ErrMax= 7.62D-07  0.00D+00 EMaxC= 1.00D-01 BMatC= 9.01D-10 BMatP= 9.81D-10
 IDIUse=1 WtCom= 1.00D+00 WtEn= 0.00D+00
 Coeff-Com:  0.650D-04 0.859D-04-0.184D-03-0.808D-03-0.304D-03-0.566D-03
 Coeff-Com:  0.175D-02 0.199D-02-0.232D-04-0.273D-01-0.545D-01 0.123D-01
 Coeff-Com:  0.172D+00 0.649D-01-0.145D+00-0.138D+00-0.171D+00 0.559D-01
 Coeff-Com:  0.514D+00 0.715D+00
 Coeff:      0.650D-04 0.859D-04-0.184D-03-0.808D-03-0.304D-03-0.566D-03
 Coeff:      0.175D-02 0.199D-02-0.232D-04-0.273D-01-0.545D-01 0.123D-01
 Coeff:      0.172D+00 0.649D-01-0.145D+00-0.138D+00-0.171D+00 0.559D-01
 Coeff:      0.514D+00 0.715D+00
 Gap=     0.178 Goal=   None    Shift=    0.000
 Gap=     0.014 Goal=   None    Shift=    0.000
 RMSDP=8.66D-08 MaxDP=1.21D-05 DE=-4.58D-10 OVMax= 1.14D-04

 Cycle  33  Pass 1  IDiag  1:
 RMSU=  1.54D-08    CP:  1.00D+00  2.22D+00  3.00D+00  3.00D+00  3.00D+00
                    CP:  3.00D+00  3.00D+00  2.44D+00  1.92D+00  3.00D+00
                    CP:  2.25D+00  1.32D+00
 E= -5078.54373818140     Delta-E=       -0.000000000269 Rises=F Damp=F
 DIIS: error= 5.00D-07 at cycle  33 NSaved=  20.
 NSaved=20 IEnMin=20 EnMin= -5078.54373818140     IErMin=17 ErrMin= 4.54D-07
 ErrMax= 5.00D-07  0.00D+00 EMaxC= 1.00D-01 BMatC= 3.29D-10 BMatP= 9.01D-10
 IDIUse=1 WtCom= 1.00D+00 WtEn= 0.00D+00
 Coeff-Com:  0.461D-04-0.354D-04-0.157D-03 0.130D-03-0.420D-03 0.191D-03
 Coeff-Com:  0.585D-03 0.146D-03-0.122D-01-0.277D-01 0.214D-02 0.829D-01
 Coeff-Com:  0.524D-01-0.631D-01-0.767D-01-0.132D+00-0.888D-01 0.264D+00
 Coeff-Com:  0.509D+00 0.490D+00
 Coeff:      0.461D-04-0.354D-04-0.157D-03 0.130D-03-0.420D-03 0.191D-03
 Coeff:      0.585D-03 0.146D-03-0.122D-01-0.277D-01 0.214D-02 0.829D-01
 Coeff:      0.524D-01-0.631D-01-0.767D-01-0.132D+00-0.888D-01 0.264D+00
 Coeff:      0.509D+00 0.490D+00
 Gap=     0.178 Goal=   None    Shift=    0.000
 Gap=     0.014 Goal=   None    Shift=    0.000
 RMSDP=2.55D-08 MaxDP=3.37D-06 DE=-2.69D-10 OVMax= 3.32D-05

 Cycle  34  Pass 1  IDiag  1:
 RMSU=  1.08D-08    CP:  1.00D+00  2.22D+00  3.00D+00  3.00D+00  3.00D+00
                    CP:  3.00D+00  3.00D+00  2.44D+00  1.93D+00  3.00D+00
                    CP:  2.51D+00  1.57D+00  1.87D+00
 E= -5078.54373818144     Delta-E=       -0.000000000035 Rises=F Damp=F
 DIIS: error= 1.87D-07 at cycle  34 NSaved=  20.
 NSaved=20 IEnMin=20 EnMin= -5078.54373818144     IErMin=20 ErrMin= 1.87D-07
 ErrMax= 1.87D-07  0.00D+00 EMaxC= 1.00D-01 BMatC= 6.26D-11 BMatP= 3.29D-10
 IDIUse=1 WtCom= 1.00D+00 WtEn= 0.00D+00
 Coeff-Com:  0.905D-04 0.251D-03 0.194D-03-0.191D-04-0.126D-03-0.462D-03
 Coeff-Com: -0.182D-03 0.346D-02 0.270D-02-0.495D-02-0.165D-01 0.110D-01
 Coeff-Com:  0.221D-01 0.339D-02-0.367D-01-0.116D+00 0.119D-01 0.116D+00
 Coeff-Com:  0.378D+00 0.625D+00
 Coeff:      0.905D-04 0.251D-03 0.194D-03-0.191D-04-0.126D-03-0.462D-03
 Coeff:     -0.182D-03 0.346D-02 0.270D-02-0.495D-02-0.165D-01 0.110D-01
 Coeff:      0.221D-01 0.339D-02-0.367D-01-0.116D+00 0.119D-01 0.116D+00
 Coeff:      0.378D+00 0.625D+00
 Gap=     0.178 Goal=   None    Shift=    0.000
 Gap=     0.014 Goal=   None    Shift=    0.000
 RMSDP=2.36D-08 MaxDP=2.92D-06 DE=-3.46D-11 OVMax= 3.10D-05

 Cycle  35  Pass 1  IDiag  1:
 RMSU=  5.63D-09    CP:  1.00D+00  2.22D+00  3.00D+00  3.00D+00  3.00D+00
                    CP:  3.00D+00  3.00D+00  2.46D+00  1.94D+00  3.00D+00
                    CP:  2.68D+00  1.79D+00  2.56D+00  1.46D+00
 E= -5078.54373818136     Delta-E=        0.000000000082 Rises=F Damp=F
 DIIS: error= 5.11D-08 at cycle  35 NSaved=  20.
 NSaved=20 IEnMin=19 EnMin= -5078.54373818144     IErMin=20 ErrMin= 5.11D-08
 ErrMax= 5.11D-08  0.00D+00 EMaxC= 1.00D-01 BMatC= 9.98D-12 BMatP= 6.26D-11
 IDIUse=1 WtCom= 1.00D+00 WtEn= 0.00D+00
 Coeff-Com:  0.105D-03-0.325D-04 0.220D-03-0.349D-04-0.419D-03-0.655D-03
 Coeff-Com:  0.483D-02 0.116D-01-0.337D-02-0.393D-01-0.626D-02 0.334D-01
 Coeff-Com:  0.266D-01 0.305D-01-0.176D-01-0.103D+00-0.153D+00-0.376D-01
 Coeff-Com:  0.258D+00 0.996D+00
 Coeff:      0.105D-03-0.325D-04 0.220D-03-0.349D-04-0.419D-03-0.655D-03
 Coeff:      0.483D-02 0.116D-01-0.337D-02-0.393D-01-0.626D-02 0.334D-01
 Coeff:      0.266D-01 0.305D-01-0.176D-01-0.103D+00-0.153D+00-0.376D-01
 Coeff:      0.258D+00 0.996D+00
 Gap=     0.178 Goal=   None    Shift=    0.000
 Gap=     0.014 Goal=   None    Shift=    0.000
 RMSDP=1.61D-08 MaxDP=1.98D-06 DE= 8.19D-11 OVMax= 2.12D-05

 Cycle  36  Pass 1  IDiag  1:
 RMSU=  5.52D-09    CP:  1.00D+00  2.22D+00  3.00D+00  3.00D+00  3.00D+00
                    CP:  3.00D+00  3.00D+00  2.46D+00  1.94D+00  3.00D+00
                    CP:  2.83D+00  2.06D+00  3.00D+00  1.88D+00  2.03D+00
 E= -5078.54373818143     Delta-E=       -0.000000000073 Rises=F Damp=F
 DIIS: error= 1.05D-07 at cycle  36 NSaved=  20.
 NSaved=20 IEnMin=18 EnMin= -5078.54373818144     IErMin=19 ErrMin= 5.11D-08
 ErrMax= 1.05D-07  0.00D+00 EMaxC= 1.00D-01 BMatC= 1.41D-11 BMatP= 9.98D-12
 IDIUse=1 WtCom= 1.00D+00 WtEn= 0.00D+00
 Coeff-Com: -0.120D-03 0.143D-03 0.145D-03 0.747D-04-0.159D-03 0.245D-02
 Coeff-Com:  0.651D-02-0.162D-02-0.225D-01-0.873D-02 0.174D-01 0.186D-01
 Coeff-Com:  0.332D-01 0.157D-01-0.742D-01-0.115D+00-0.913D-01 0.247D-01
 Coeff-Com:  0.564D+00 0.630D+00
 Coeff:     -0.120D-03 0.143D-03 0.145D-03 0.747D-04-0.159D-03 0.245D-02
 Coeff:      0.651D-02-0.162D-02-0.225D-01-0.873D-02 0.174D-01 0.186D-01
 Coeff:      0.332D-01 0.157D-01-0.742D-01-0.115D+00-0.913D-01 0.247D-01
 Coeff:      0.564D+00 0.630D+00
 Gap=     0.178 Goal=   None    Shift=    0.000
 Gap=     0.014 Goal=   None    Shift=    0.000
 RMSDP=6.90D-09 MaxDP=8.44D-07 DE=-7.28D-11 OVMax= 9.05D-06

 SCF Done:  E(UM06L) =  -5078.54373818     A.U. after   36 cycles
            NFock= 36  Conv=0.69D-08     -V/T= 2.0016
 <Sx>= 0.0000 <Sy>= 0.0000 <Sz>= 7.0000 <S**2>=56.0627 S= 7.0042
 <L.S>=  0.00000000000    
 KE= 5.070318387775D+03 PE=-2.031491681567D+04 EE= 6.037532541151D+03
 Annihilation of the first spin contaminant:
 S**2 before annihilation    56.0627,   after    56.0003
 Leave Link  502 at Wed Feb  1 12:19:13 2023, MaxMem= 14763950080 cpu:           10736.3 elap:            5413.0
 (Enter /software/commercial/gaussian/g16/AVX2/g16/l508.exe)
 QCSCF skips out because SCF is already converged.
 Leave Link  508 at Wed Feb  1 12:19:14 2023, MaxMem= 14763950080 cpu:               0.1 elap:               0.1
 (Enter /software/commercial/gaussian/g16/AVX2/g16/l601.exe)
 Copying SCF densities to generalized density rwf, IOpCl= 1 IROHF=0.

 **********************************************************************

            Population analysis using the SCF Density.

 **********************************************************************

 Alpha  occ. eigenvalues -- -255.61947-255.61938-255.61890 -30.06446 -30.06414
 Alpha  occ. eigenvalues --  -30.06386 -25.84178 -25.84135 -25.84024 -25.83544
 Alpha  occ. eigenvalues --  -25.83347 -25.83277 -25.83129 -25.83068 -25.82948
 Alpha  occ. eigenvalues --  -19.02758 -18.98013 -18.98000 -18.97996 -18.97994
 Alpha  occ. eigenvalues --  -18.97978 -18.97975 -18.97953 -18.97926 -18.97916
 Alpha  occ. eigenvalues --  -18.97913 -18.97876 -18.97861 -18.96226 -10.17791
 Alpha  occ. eigenvalues --  -10.17747 -10.17745 -10.17711 -10.17656 -10.17655
 Alpha  occ. eigenvalues --   -3.63416  -3.63355  -3.63298  -2.38689  -2.38654
 Alpha  occ. eigenvalues --   -2.38539  -2.37498  -2.36953  -2.36874  -2.36547
 Alpha  occ. eigenvalues --   -2.36482  -2.36301  -1.06739  -1.06479  -1.06442
 Alpha  occ. eigenvalues --   -1.06169  -1.06106  -1.06079  -1.04867  -0.98935
 Alpha  occ. eigenvalues --   -0.98862  -0.98579  -0.98459  -0.98436  -0.98365
 Alpha  occ. eigenvalues --   -0.93869  -0.59517  -0.58471  -0.58242  -0.58086
 Alpha  occ. eigenvalues --   -0.57964  -0.57839  -0.54860  -0.49387  -0.49347
 Alpha  occ. eigenvalues --   -0.48539  -0.47875  -0.47782  -0.47549  -0.47435
 Alpha  occ. eigenvalues --   -0.47375  -0.47367  -0.46618  -0.46451  -0.46363
 Alpha  occ. eigenvalues --   -0.44951  -0.43746  -0.43736  -0.42642  -0.42470
 Alpha  occ. eigenvalues --   -0.41833  -0.41614  -0.40490  -0.40398  -0.38989
 Alpha  occ. eigenvalues --   -0.38136  -0.37497  -0.37359  -0.37199  -0.36847
 Alpha  occ. eigenvalues --   -0.36832  -0.36363  -0.36021  -0.35874  -0.35732
 Alpha  occ. eigenvalues --   -0.34495  -0.33868  -0.32813  -0.32733  -0.32154
 Alpha  occ. eigenvalues --   -0.29621  -0.29486  -0.28984  -0.28969  -0.28912
 Alpha  occ. eigenvalues --   -0.28760  -0.28595  -0.28521  -0.27912  -0.27741
 Alpha  occ. eigenvalues --   -0.27721  -0.27551  -0.27405  -0.25392  -0.24282
[...]
 Coeff-Com: -0.279D-02 0.186D-01 0.226D-01 0.961D+00
 Coeff:     -0.279D-02 0.186D-01 0.226D-01 0.961D+00
 Gap=     0.300 Goal=   None    Shift=    0.000
 Gap=     0.300 Goal=   None    Shift=    0.000
 RMSDP=5.16D-08 MaxDP=5.80D-07 DE=-3.49D-09 OVMax= 7.61D-07

 Cycle  10  Pass 1  IDiag  1:
 E= -76.4431166333078     Delta-E=       -0.000000000002 Rises=F Damp=F
 DIIS: error= 1.13D-07 at cycle   5 NSaved=   5.
 NSaved= 5 IEnMin= 5 EnMin= -76.4431166333078     IErMin= 5 ErrMin= 1.13D-07
 ErrMax= 1.13D-07  0.00D+00 EMaxC= 1.00D-01 BMatC= 1.68D-12 BMatP= 9.52D-12
 IDIUse=1 WtCom= 1.00D+00 WtEn= 0.00D+00
 Coeff-Com: -0.399D-03-0.157D-01-0.155D-01 0.240D+00 0.792D+00
 Coeff:     -0.399D-03-0.157D-01-0.155D-01 0.240D+00 0.792D+00
 Gap=     0.300 Goal=   None    Shift=    0.000
 Gap=     0.300 Goal=   None    Shift=    0.000
 RMSDP=1.38D-08 MaxDP=1.61D-07 DE=-1.88D-12 OVMax= 2.23D-07

 Cycle  11  Pass 1  IDiag  1:
 E= -76.4431166333081     Delta-E=       -0.000000000000 Rises=F Damp=F
 DIIS: error= 1.56D-08 at cycle   6 NSaved=   6.
 NSaved= 6 IEnMin= 6 EnMin= -76.4431166333081     IErMin= 6 ErrMin= 1.56D-08
 ErrMax= 1.56D-08  0.00D+00 EMaxC= 1.00D-01 BMatC= 3.95D-14 BMatP= 1.68D-12
 IDIUse=1 WtCom= 1.00D+00 WtEn= 0.00D+00
 Coeff-Com:  0.897D-04-0.186D-02-0.269D-02-0.280D-01 0.496D-01 0.983D+00
 Coeff:      0.897D-04-0.186D-02-0.269D-02-0.280D-01 0.496D-01 0.983D+00
 Gap=     0.300 Goal=   None    Shift=    0.000
 Gap=     0.300 Goal=   None    Shift=    0.000
 RMSDP=2.82D-09 MaxDP=2.85D-08 DE=-3.69D-13 OVMax= 3.72D-08

 SCF Done:  E(UM06L) =  -76.4431166333     A.U. after   11 cycles
            NFock= 11  Conv=0.28D-08     -V/T= 2.0034
 <Sx>= 0.0000 <Sy>= 0.0000 <Sz>= 0.0000 <S**2>=-0.0000 S=-0.0000
 <L.S>=  0.00000000000    
 KE= 7.618708289094D+01 PE=-1.991147852861D+02 EE= 3.740113268951D+01
 Annihilation of the first spin contaminant:
 S**2 before annihilation    -0.0000,   after    -0.0000
 Leave Link  502 at Wed Feb  1 15:48:38 2023, MaxMem= 14763950080 cpu:               4.1 elap:               2.2
 (Enter /software/commercial/gaussian/g16/AVX2/g16/l508.exe)
 QCSCF skips out because SCF is already converged.
 Leave Link  508 at Wed Feb  1 15:48:38 2023, MaxMem= 14763950080 cpu:               0.0 elap:               0.0
 (Enter /software/commercial/gaussian/g16/AVX2/g16/l601.exe)
 Copying SCF densities to generalized density rwf, IOpCl= 1 IROHF=0.

 **********************************************************************

            Population analysis using the SCF Density.

 **********************************************************************

 Alpha  occ. eigenvalues --  -18.96285  -0.97996  -0.48810  -0.34755  -0.26773
 Alpha virt. eigenvalues --    0.03198   0.09701   0.35053   0.39439   0.43660
 Alpha virt. eigenvalues --    0.44025   0.56395   0.57218   1.16396   1.18975
 Alpha virt. eigenvalues --    1.30110   1.52961   1.64784   1.76622   2.01440
 Alpha virt. eigenvalues --    2.09061   2.12754   2.32238   2.41870   2.62524
 Alpha virt. eigenvalues --    2.64880   2.69066   2.84233   3.73058   4.01008
 Alpha virt. eigenvalues --    5.23108   5.32802   5.50636   5.52157   5.57996
 Alpha virt. eigenvalues --    6.12368   6.32191   6.42731   6.48919   6.54783
 Alpha virt. eigenvalues --    7.04929   7.14008  43.44224
  Beta  occ. eigenvalues --  -18.96285  -0.97996  -0.48810  -0.34755  -0.26773
  Beta virt. eigenvalues --    0.03198   0.09701   0.35053   0.39439   0.43660
  Beta virt. eigenvalues --    0.44025   0.56395   0.57218   1.16396   1.18975
  Beta virt. eigenvalues --    1.30110   1.52961   1.64784   1.76622   2.01440
  Beta virt. eigenvalues --    2.09061   2.12754   2.32238   2.41870   2.62524
  Beta virt. eigenvalues --    2.64880   2.69066   2.84233   3.73058   4.01008
  Beta virt. eigenvalues --    5.23108   5.32802   5.50636   5.52157   5.57996
  Beta virt. eigenvalues --    6.12368   6.32191   6.42731   6.48919   6.54783
  Beta virt. eigenvalues --    7.04929   7.14008  43.44224
          Condensed to atoms (all electrons):
              29         30         31
    29  O    8.059463   0.288801   0.288878
    30  H    0.288801   0.409738  -0.017132
    31  H    0.288878  -0.017132   0.409703
          Atomic-Atomic Spin Densities.
              29         30         31
    29  O    0.000000   0.000000   0.000000
    30  H    0.000000   0.000000   0.000000
    31  H    0.000000   0.000000   0.000000
 Mulliken charges and spin densities:
               1          2
     1  O    0.000000   0.000000
     2  O    0.000000   0.000000
     3  C    0.000000   0.000000
     4  H    0.000000   0.000000
     5  O    0.000000   0.000000
     6  O    0.000000   0.000000
     7  C    0.000000   0.000000
     8  H    0.000000   0.000000
     9  O    0.000000   0.000000
    10  O    0.000000   0.000000
    11  O    0.000000   0.000000
    12  C    0.000000   0.000000
    13  H    0.000000   0.000000
    14  O    0.000000   0.000000
    15  O    0.000000   0.000000
    16  C    0.000000   0.000000
    17  H    0.000000   0.000000
    18  Fe   0.000000   0.000000
    19  O    0.000000   0.000000
    20  Fe   0.000000   0.000000
    21  O    0.000000   0.000000
    22  O    0.000000   0.000000
    23  Fe   0.000000   0.000000
    24  O    0.000000   0.000000
    25  C    0.000000   0.000000
    26  H    0.000000   0.000000
    27  C    0.000000   0.000000
    28  H    0.000000   0.000000
    29  O   -0.637142   0.000000
    30  H    0.318592   0.000000
    31  H    0.318550   0.000000
 Sum of Mulliken charges =  -0.00000   0.00000
 Mulliken charges and spin densities with hydrogens summed into heavy atoms:
               1          2
     1  O    0.000000   0.000000
     2  O    0.000000   0.000000
     3  C    0.000000   0.000000
     5  O    0.000000   0.000000
     6  O    0.000000   0.000000
     7  C    0.000000   0.000000
     9  O    0.000000   0.000000
    10  O    0.000000   0.000000
    11  O    0.000000   0.000000
    12  C    0.000000   0.000000
    14  O    0.000000   0.000000
    15  O    0.000000   0.000000
    16  C    0.000000   0.000000
    18  Fe   0.000000   0.000000
    19  O    0.000000   0.000000
    20  Fe   0.000000   0.000000
    21  O    0.000000   0.000000
    22  O    0.000000   0.000000
    23  Fe   0.000000   0.000000
    24  O    0.000000   0.000000
    25  C    0.000000   0.000000
    27  C    0.000000   0.000000
    29  O   -0.000000   0.000000
         Mulliken charges and spin densities condensed to fragments:
      1      0.000000      0.000000
      2     -0.000000      0.000000
 Electronic spatial extent (au):  <R**2>=            656.1158
 Charge=             -0.0000 electrons
 Dipole moment (field-independent basis, Debye):
    X=             -0.1849    Y=              0.1417    Z=             -2.0142  Tot=              2.0276
 Quadrupole moment (field-independent basis, Debye-Ang):
   XX=             -4.3647   YY=             -6.2871   ZZ=             -4.8527
   XY=             -0.6538   XZ=             -0.5757   YZ=             -8.6226
 Traceless Quadrupole moment (field-independent basis, Debye-Ang):
   XX=              0.8035   YY=             -1.1189   ZZ=              0.3154
   XY=             -0.6538   XZ=             -0.5757   YZ=             -8.6226
 Octapole moment (field-independent basis, Debye-Ang**2):
  XXX=             -3.3627  YYY=            -86.8325  ZZZ=              4.1719  XYY=             -3.9897
  XXY=            -18.2328  XXZ=             -0.0295  XZZ=             -0.9156  YZZ=            -20.2953
  YYZ=            -34.7800  XYZ=             -2.5207
 Hexadecapole moment (field-independent basis, Debye-Ang**3):
 XXXX=             -7.7053 YYYY=           -757.6821 ZZZZ=             -8.9844 XXXY=            -14.0541
 XXXZ=              0.2119 YYYX=            -29.4162 YYYZ=           -131.0840 ZZZX=              0.6726
 ZZZY=             17.4814 XXYY=            -78.9070 XXZZ=             -1.6289 YYZZ=            -87.7248
 XXYZ=             -0.2248 YYXZ=            -10.5165 ZZXY=             -3.7709
 N-N= 9.083453072373D+00 E-N=-1.991147856052D+02  KE= 7.618708289094D+01
 There are a total of       66422 grid points.
 ElSum from          density=        9.9999999704
 ElSum from atomic densities=        9.9999999813
 Hirshfeld populations at iteration   1 (CA, CB, DipXYZ):
               1          2          3          4          5
     1  O    0.000000   0.000000   0.000000   0.000000   0.000000
     2  O    0.000000   0.000000   0.000000   0.000000   0.000000
     3  C    0.000000   0.000000   0.000000   0.000000   0.000000
     4  H    0.000000   0.000000   0.000000   0.000000   0.000000
     5  O    0.000000   0.000000   0.000000   0.000000   0.000000
     6  O    0.000000   0.000000   0.000000   0.000000   0.000000
     7  C    0.000000   0.000000   0.000000   0.000000   0.000000
     8  H    0.000000   0.000000   0.000000   0.000000   0.000000
     9  O    0.000000   0.000000   0.000000   0.000000   0.000000
    10  O    0.000000   0.000000   0.000000   0.000000   0.000000
    11  O    0.000000   0.000000   0.000000   0.000000   0.000000
    12  C    0.000000   0.000000   0.000000   0.000000   0.000000
    13  H    0.000000   0.000000   0.000000   0.000000   0.000000
    14  O    0.000000   0.000000   0.000000   0.000000   0.000000
    15  O    0.000000   0.000000   0.000000   0.000000   0.000000
    16  C    0.000000   0.000000   0.000000   0.000000   0.000000
    17  H    0.000000   0.000000   0.000000   0.000000   0.000000
    18  Fe   0.000000   0.000000   0.000000   0.000000   0.000000
    19  O    0.000000   0.000000   0.000000   0.000000   0.000000
    20  Fe   0.000000   0.000000   0.000000   0.000000   0.000000
    21  O    0.000000   0.000000   0.000000   0.000000   0.000000
    22  O    0.000000   0.000000   0.000000   0.000000   0.000000
    23  Fe   0.000000   0.000000   0.000000   0.000000   0.000000
    24  O    0.000000   0.000000   0.000000   0.000000   0.000000
    25  C    0.000000   0.000000   0.000000   0.000000   0.000000
    26  H    0.000000   0.000000   0.000000   0.000000   0.000000
    27  C    0.000000   0.000000   0.000000   0.000000   0.000000
    28  H    0.000000   0.000000   0.000000   0.000000   0.000000
    29  O    4.154626   4.154626  -0.015646   0.011916  -0.169462
    30  H    0.422670   0.422670   0.167978   0.015437  -0.155573
    31  H    0.422704   0.422704  -0.193623   0.004163  -0.123127
       Tot   5.000000   5.000000  -0.041291   0.031516  -0.448162

 Dip from Atomic Chgs             -0.031455   0.024219  -0.344285
         Total Dipole             -0.072746   0.055735  -0.792447

 Hirshfeld charges, spin densities, dipoles, and CM5 charges using IRadAn=      5:
              Q-H        S-H        Dx         Dy         Dz        Q-CM5   
     1  O    0.000000   0.000000   0.000000   0.000000   0.000000   0.000000
     2  O    0.000000   0.000000   0.000000   0.000000   0.000000   0.000000
     3  C    0.000000   0.000000   0.000000   0.000000   0.000000   0.000000
     4  H    0.000000   0.000000   0.000000   0.000000   0.000000   0.000000
     5  O    0.000000   0.000000   0.000000   0.000000   0.000000   0.000000
     6  O    0.000000   0.000000   0.000000   0.000000   0.000000   0.000000
     7  C    0.000000   0.000000   0.000000   0.000000   0.000000   0.000000
     8  H    0.000000   0.000000   0.000000   0.000000   0.000000   0.000000
     9  O    0.000000   0.000000   0.000000   0.000000   0.000000   0.000000
    10  O    0.000000   0.000000   0.000000   0.000000   0.000000   0.000000
    11  O    0.000000   0.000000   0.000000   0.000000   0.000000   0.000000
    12  C    0.000000   0.000000   0.000000   0.000000   0.000000   0.000000
    13  H    0.000000   0.000000   0.000000   0.000000   0.000000   0.000000
    14  O    0.000000   0.000000   0.000000   0.000000   0.000000   0.000000
    15  O    0.000000   0.000000   0.000000   0.000000   0.000000   0.000000
    16  C    0.000000   0.000000   0.000000   0.000000   0.000000   0.000000
    17  H    0.000000   0.000000   0.000000   0.000000   0.000000   0.000000
    18  Fe   0.000000   0.000000   0.000000   0.000000   0.000000   0.000000
    19  O    0.000000   0.000000   0.000000   0.000000   0.000000   0.000000
    20  Fe   0.000000   0.000000   0.000000   0.000000   0.000000   0.000000
    21  O    0.000000   0.000000   0.000000   0.000000   0.000000   0.000000
    22  O    0.000000   0.000000   0.000000   0.000000   0.000000   0.000000
    23  Fe   0.000000   0.000000   0.000000   0.000000   0.000000   0.000000
    24  O    0.000000   0.000000   0.000000   0.000000   0.000000   0.000000
    25  C    0.000000   0.000000   0.000000   0.000000   0.000000   0.000000
    26  H    0.000000   0.000000   0.000000   0.000000   0.000000   0.000000
    27  C    0.000000   0.000000   0.000000   0.000000   0.000000   0.000000
    28  H    0.000000   0.000000   0.000000   0.000000   0.000000   0.000000
    29  O   -0.309252   0.000000  -0.015646   0.011916  -0.169462  -0.636134
    30  H    0.154661   0.000000   0.167978   0.015437  -0.155573   0.318023
    31  H    0.154591   0.000000  -0.193623   0.004163  -0.123127   0.318111
       Tot   0.000000   0.000000  -0.041291   0.031516  -0.448162   0.000000
 Hirshfeld charges and spin densities with hydrogens summed into heavy atoms:
              Q-H        S-H       Q-CM5   
     1  O    0.000000   0.000000   0.000000
     2  O    0.000000   0.000000   0.000000
     3  C    0.000000   0.000000   0.000000
     5  O    0.000000   0.000000   0.000000
     6  O    0.000000   0.000000   0.000000
     7  C    0.000000   0.000000   0.000000
     9  O    0.000000   0.000000   0.000000
    10  O    0.000000   0.000000   0.000000
    11  O    0.000000   0.000000   0.000000
    12  C    0.000000   0.000000   0.000000
    14  O    0.000000   0.000000   0.000000
    15  O    0.000000   0.000000   0.000000
    16  C    0.000000   0.000000   0.000000
    18  Fe   0.000000   0.000000   0.000000
    19  O    0.000000   0.000000   0.000000
    20  Fe   0.000000   0.000000   0.000000
    21  O    0.000000   0.000000   0.000000
    22  O    0.000000   0.000000   0.000000
    23  Fe   0.000000   0.000000   0.000000
    24  O    0.000000   0.000000   0.000000
    25  C    0.000000   0.000000   0.000000
    27  C    0.000000   0.000000   0.000000
    29  O    0.000000   0.000000   0.000000
         Hirshfeld charges and spin densities condensed to fragments:
      1      0.000000      0.000000
      2      0.000000      0.000000
 
 EQQ=  0.00000000000     EQD=  0.00000000000     EDD= 0.724890863140E-02
 EQQ+QD+DD= 0.724890863140E-02
 
                          Isotropic Fermi Contact Couplings
        Atom                 a.u.       MegaHertz       Gauss      10(-4) cm-1
    29  O(17)              0.00000      -0.00000      -0.00000      -0.00000
    30  H(1)               0.00000       0.00000       0.00000       0.00000
    31  H(1)               0.00000       0.00000       0.00000       0.00000
 --------------------------------------------------------
       Center         ----  Spin Dipole Couplings  ----
                      3XX-RR        3YY-RR        3ZZ-RR
 --------------------------------------------------------
    29   Atom        0.000000      0.000000      0.000000
    30   Atom        0.000000      0.000000      0.000000
    31   Atom        0.000000      0.000000      0.000000
 --------------------------------------------------------
                        XY            XZ            YZ
 --------------------------------------------------------
    29   Atom        0.000000      0.000000      0.000000
    30   Atom        0.000000      0.000000      0.000000
    31   Atom        0.000000      0.000000      0.000000
 --------------------------------------------------------


 ---------------------------------------------------------------------------------
              Anisotropic Spin Dipole Couplings in Principal Axis System
 ---------------------------------------------------------------------------------

       Atom             a.u.   MegaHertz   Gauss  10(-4) cm-1        Axes

              Baa     0.0000    -0.000    -0.000    -0.000  1.0000  0.0000  0.0000
    29 O(17)  Bbb     0.0000    -0.000    -0.000    -0.000 -0.0000  1.0000  0.0000
              Bcc     0.0000    -0.000    -0.000    -0.000  0.0000  0.0000  1.0000
 
              Baa     0.0000     0.000     0.000     0.000  1.0000  0.0000  0.0000
    30 H(1)   Bbb     0.0000     0.000     0.000     0.000 -0.0000  1.0000  0.0000
              Bcc     0.0000     0.000     0.000     0.000  0.0000  0.0000  1.0000
 
              Baa     0.0000     0.000     0.000     0.000  1.0000  0.0000  0.0000
    31 H(1)   Bbb     0.0000     0.000     0.000     0.000 -0.0000  1.0000  0.0000
              Bcc     0.0000     0.000     0.000     0.000  0.0000  0.0000  1.0000
 

 ---------------------------------------------------------------------------------

 No NMR shielding tensors so no spin-rotation constants.
 Leave Link  601 at Wed Feb  1 15:48:39 2023, MaxMem= 14763950080 cpu:               0.4 elap:               0.2
 (Enter /software/commercial/gaussian/g16/AVX2/g16/l122.exe)
 CPIOFr:  IOpCl= 1 IRwI=-1 IRwCP=  731 ICalc=  4 LCPTot=      977596 Len1MO=     3241254 IndFrg=    17183866
 Restoring MOs from calculation   1 to rwf.
 CPIOFr:  IOpCl= 1 IRwI=-2 IRwCP=  731 ICalc=  0 LCPTot=      977596 Len1MO=     3241254 IndFrg=     4218850
 Counterpoise corrected energy =   -5078.541763033302
                   BSSE energy =       0.001975148126
              sum of fragments =   -5078.506243513114
           complexation energy =     -23.53 kcal/mole (raw)
           complexation energy =     -22.29 kcal/mole (corrected)
 Leave Link  122 at Wed Feb  1 15:48:41 2023, MaxMem= 14763950080 cpu:               0.1 elap:               1.4
 (Enter /software/commercial/gaussian/g16/AVX2/g16/l9999.exe)
 Unable to Open any file for archive entry.
 1\1\GINC-NODE2010\SP\UM06L\Gen\C6H8Fe3O14(15)\SVICCHI\01-Feb-2023\0\\#
 p gen um06l int=grid=ultrafine scf=(xqc,intrep,maxconventionalcycle=15
 0) pop=(hirshfeld) nosymm counterpoise=2\\FeFeFe-A-1xH2O\\0,15\O,0,1.5
 2701,-2.17442,-1.528538\O,0,-0.716556,-2.27649,-1.33328\C,0,0.388585,-
 2.60873,-1.822767\H,0,0.354601,-3.375407,-2.615179\O,0,1.93682,2.20919
 4,1.439928\O,0,3.104092,0.295101,1.197619\C,0,2.888801,1.431265,1.6821
 87\H,0,3.629974,1.788879,2.41715\O,0,-2.219574,0.126871,-1.204665\O,0,
 2.827228,0.342818,-1.630797\O,0,1.734384,2.302238,-1.404736\C,0,2.5657
 78,1.528141,-1.937278\H,0,3.139699,1.940496,-2.786017\O,0,-0.475477,-2
 .30418,1.478768\O,0,1.768498,-2.209668,1.284965\C,0,0.695786,-2.650457
 ,1.760679\H,0,0.795169,-3.437652,2.527157\Fe,0,-1.106564,-0.921728,0.1
 2865\O,0,-2.024296,0.072394,1.629383\Fe,0,0.355749,2.069796,0.180428\O
 ,0,-1.006923,2.083988,1.678007\O,0,-1.268,2.170842,-1.160997\Fe,0,2.03
 9676,-0.784742,-0.139459\O,0,0.426307,0.1571,0.020219\C,0,-1.833355,1.
 229153,2.073779\H,0,-2.471209,1.530016,2.922246\C,0,-2.108963,1.324943
 ,-1.550493\H,0,-2.844665,1.678176,-2.294592\O,0,0.242402,4.200359,-0.2
 14244\H,0,0.951239,4.265593,-0.871917\H,0,-0.574426,4.218,-0.734789\\V
 ersion=ES64L-G16RevC.02\HF=-76.4431166\S2=0.\S2-1=0.\S2A=0.\RMSD=2.822
 e-09\Dipole=-0.0218047,0.8685173,-0.5843461\Quadrupole=-3.8646582,4.26
 99569,-0.4052988,-0.0701732,0.1846431,-6.3481912\PG=C01 [X(C6H8Fe3O14)
 ]\\@
 The archive entry for this job was punched.


 IT WAS AN ACT OF DESPARATION. FOR SIX YEARS I HAD STRUGGLED WITH THE
 BLACKBODY THEORY. I KNEW THE PROBLEM WAS FUNDAMENTAL, AND I KNEW
 THE ANSWER. I HAD TO FIND A THEORETICAL EXPLANATION AT ANY COST,
 EXCEPT FOR THE INVIOLABLITY OF THE TWO LAWS OF THERMODYNAMICS.
   -- MAX PLANCK, 1931
 Job cpu time:       0 days  9 hours 53 minutes 55.4 seconds.
 Elapsed time:       0 days  4 hours 59 minutes 45.6 seconds.
 File lengths (MBytes):  RWF=    792 Int=      0 D2E=      0 Chk=    172 Scr=      1
 Normal termination of Gaussian 16 at Wed Feb  1 15:48:42 2023.
