 Entering Gaussian System, Link 0=g16
 Input=FeFeFe-A-1xH2O-freq.gjf
 Output=FeFeFe-A-1xH2O-freq.log
 AtFile(1): /zfs/curium/svicchi/00-MOF/01-Gaussian/zw-basis-set/def2-TZVP/H.gbs
            !----------------------------------------------------------------------
            ! Basis Set Exchange
            ! Version v0.9
            ! https://www.basissetexchange.org
            !----------------------------------------------------------------------
            !   Basis set: def2-TZVP
            ! Description: def2-TZVP
            !        Role: orbital
            !     Version: 1  (Data from Turbomole 7.3)
            !----------------------------------------------------------------------
            H     0
            S    3   1.00
                 34.0613410              0.60251978D-02
                  5.1235746              0.45021094D-01
                  1.1646626              0.20189726
            S    1   1.00
                  0.32723041             1.0000000
            S    1   1.00
                  0.10307241             1.0000000
            P    1   1.00
                  0.8000000              1.0000000
 AtFile(1): /zfs/curium/svicchi/00-MOF/01-Gaussian/zw-basis-set/def2-TZVP/O.gbs
            !----------------------------------------------------------------------
            ! Basis Set Exchange
            ! Version v0.9
            ! https://www.basissetexchange.org
            !----------------------------------------------------------------------
            !   Basis set: def2-TZVP
            ! Description: def2-TZVP
            !        Role: orbital
            !     Version: 1  (Data from Turbomole 7.3)
            !----------------------------------------------------------------------
            O     0
            S    6   1.00
              27032.3826310              0.21726302465D-03
               4052.3871392              0.16838662199D-02
                922.32722710             0.87395616265D-02
                261.24070989             0.35239968808D-01
                 85.354641351            0.11153519115
                 31.035035245            0.25588953961
            S    2   1.00
                 12.260860728            0.39768730901
                  4.9987076005           0.24627849430
            S    1   1.00
                  1.1703108158           1.0000000
            S    1   1.00
                  0.46474740994          1.0000000
            S    1   1.00
                  0.18504536357          1.0000000
            P    4   1.00
                 63.274954801            0.60685103418D-02
                 14.627049379            0.41912575824D-01
                  4.4501223456           0.16153841088
                  1.5275799647           0.35706951311
            P    1   1.00
                  0.52935117943           .44794207502
            P    1   1.00
                  0.17478421270           .24446069663
            D    1   1.00
                  2.31400000             1.0000000
            D    1   1.00
                  0.64500000             1.0000000
            F    1   1.00
                  1.42800000             1.0000000
 AtFile(1): /zfs/curium/svicchi/00-MOF/01-Gaussian/zw-basis-set/def2-TZVP/C.gbs
            !----------------------------------------------------------------------
            ! Basis Set Exchange
            ! Version v0.9
            ! https://www.basissetexchange.org
            !----------------------------------------------------------------------
            !   Basis set: def2-TZVP
            ! Description: def2-TZVP
            !        Role: orbital
            !     Version: 1  (Data from Turbomole 7.3)
            !----------------------------------------------------------------------
            C     0
            S    6   1.00
              13575.3496820              0.22245814352D-03
               2035.2333680              0.17232738252D-02
                463.22562359             0.89255715314D-02
                131.20019598             0.35727984502D-01
                 42.853015891            0.11076259931
                 15.584185766            0.24295627626
            S    2   1.00
                  6.2067138508           0.41440263448
                  2.5764896527           0.23744968655
            S    1   1.00
                  0.57696339419          1.0000000
            S    1   1.00
                  0.22972831358          1.0000000
            S    1   1.00
                  0.95164440028D-01      1.0000000
            P    4   1.00
                 34.697232244            0.53333657805D-02
                  7.9582622826           0.35864109092D-01
                  2.3780826883           0.14215873329
                  0.81433208183          0.34270471845
            P    1   1.00
                  0.28887547253           .46445822433
            P    1   1.00
                  0.10056823671           .24955789874
            D    1   1.00
                  1.09700000             1.0000000
            D    1   1.00
                  0.31800000             1.0000000
            F    1   1.00
                  0.76100000             1.0000000
 AtFile(1): /zfs/curium/svicchi/00-MOF/01-Gaussian/zw-basis-set/def2-TZVP/Fe.gbs
            !----------------------------------------------------------------------
            ! Basis Set Exchange
            ! Version v0.9
            ! https://www.basissetexchange.org
            !----------------------------------------------------------------------
            !   Basis set: def2-TZVP
            ! Description: def2-TZVP
            !        Role: orbital
            !     Version: 1  (Data from Turbomole 7.3)
            !----------------------------------------------------------------------
            Fe     0
            S    8   1.00
             300784.8463700              0.22806273096D-03
              45088.9705570              0.17681788761D-02
              10262.5163170              0.91927083490D-02
               2905.2897293              0.37355495807D-01
                946.11487137             0.12151108426
                339.87832894             0.28818881468
                131.94425588             0.41126612677
                 52.111494077            0.21518583573
            S    4   1.00
                329.48839267            -0.24745216477D-01
                101.92332739            -0.11683089050
                 16.240462745            0.55293621136
                  6.8840675801           0.53601640182
            S    2   1.00
                 10.470693782           -0.22912708577
                  1.7360039648           0.71159319984
            S    1   1.00
                  0.72577288979          1.0000000
            S    1   1.00
                  0.11595528203          1.0000000
            S    1   1.00
                  0.41968227746D-01      1.0000000
            P    6   1.00
               1585.3959970              0.23793960179D-02
                375.38006499             0.19253154755D-01
                120.31816501             0.90021836536D-01
                 44.788749031            0.25798172356
                 17.829278584            0.41492649744
                  7.2247153786           0.24207474784
            P    3   1.00
                 28.143219756           -0.29041755152D-01
                  3.8743241412           0.55312260343
                  1.5410752281           0.96771136842
            P    1   1.00
                  0.58285615250          1.0000000
            P    1   1.00
                  0.1349150              1.0000000
            D    4   1.00
                 61.996675034            0.11971972255D-01
                 17.873732552            0.73210135410D-01
                  6.2744782934           0.23103094314
                  2.3552337175           0.39910706494
            D    1   1.00
                  0.85432239901           .41391589765
            D    1   1.00
                  0.27869254413           .21909269782
            D    1   1.00
                  0.0910000              1.0000000
            F    1   1.00
                  1.5980000              1.0000000
 Initial command:
 /software/commercial/gaussian/g16/AVX2/g16/l1.exe "/scratch1/svicchi/G09-78655.pbs02/Gau-3286549.inp" -scrdir="/scratch1/svicchi/G09-78655.pbs02/"
 Entering Link 1 = /software/commercial/gaussian/g16/AVX2/g16/l1.exe PID=   3286550.
  
 Copyright (c) 1988-2021, Gaussian, Inc.  All Rights Reserved.
  
 This is part of the Gaussian(R) 16 program.  It is based on
 the Gaussian(R) 09 system (copyright 2009, Gaussian, Inc.),
 the Gaussian(R) 03 system (copyright 2003, Gaussian, Inc.),
 the Gaussian(R) 98 system (copyright 1998, Gaussian, Inc.),
 the Gaussian(R) 94 system (copyright 1995, Gaussian, Inc.),
 the Gaussian 92(TM) system (copyright 1992, Gaussian, Inc.),
 the Gaussian 90(TM) system (copyright 1990, Gaussian, Inc.),
 the Gaussian 88(TM) system (copyright 1988, Gaussian, Inc.),
 the Gaussian 86(TM) system (copyright 1986, Carnegie Mellon
 University), and the Gaussian 82(TM) system (copyright 1983,
 Carnegie Mellon University). Gaussian is a federally registered
 trademark of Gaussian, Inc.
  
 This software contains proprietary and confidential information,
 including trade secrets, belonging to Gaussian, Inc.
  
 This software is provided under written license and may be
 used, copied, transmitted, or stored only in accord with that
 written license.
  
 The following legend is applicable only to US Government
 contracts under FAR:
  
                    RESTRICTED RIGHTS LEGEND
  
 Use, reproduction and disclosure by the US Government is
 subject to restrictions as set forth in subparagraphs (a)
 and (c) of the Commercial Computer Software - Restricted
 Rights clause in FAR 52.227-19.
  
 Gaussian, Inc.
 340 Quinnipiac St., Bldg. 40, Wallingford CT 06492
  
  
 ---------------------------------------------------------------
 Warning -- This program may not be used in any manner that
 competes with the business of Gaussian, Inc. or will provide
 assistance to any competitor of Gaussian, Inc.  The licensee
 of this program is prohibited from giving any competitor of
 Gaussian, Inc. access to this program.  By using this program,
 the user acknowledges that Gaussian, Inc. is engaged in the
 business of creating and licensing software in the field of
 computational chemistry and represents and warrants to the
 licensee that it is not a competitor of Gaussian, Inc. and that
 it will not use this program in any manner prohibited above.
 ---------------------------------------------------------------
  

 Cite this work as:
 Gaussian 16, Revision C.02,
 M. J. Frisch, G. W. Trucks, H. B. Schlegel, G. E. Scuseria, 
 M. A. Robb, J. R. Cheeseman, G. Scalmani, V. Barone, 
 G. A. Petersson, H. Nakatsuji, X. Li, M. Caricato, A. V. Marenich, 
 J. Bloino, B. G. Janesko, R. Gomperts, B. Mennucci, H. P. Hratchian, 
 J. V. Ortiz, A. F. Izmaylov, J. L. Sonnenberg, D. Williams-Young, 
 F. Ding, F. Lipparini, F. Egidi, J. Goings, B. Peng, A. Petrone, 
 T. Henderson, D. Ranasinghe, V. G. Zakrzewski, J. Gao, N. Rega, 
 G. Zheng, W. Liang, M. Hada, M. Ehara, K. Toyota, R. Fukuda, 
 J. Hasegawa, M. Ishida, T. Nakajima, Y. Honda, O. Kitao, H. Nakai, 
 T. Vreven, K. Throssell, J. A. Montgomery, Jr., J. E. Peralta, 
 F. Ogliaro, M. J. Bearpark, J. J. Heyd, E. N. Brothers, K. N. Kudin, 
 V. N. Staroverov, T. A. Keith, R. Kobayashi, J. Normand, 
 K. Raghavachari, A. P. Rendell, J. C. Burant, S. S. Iyengar, 
 J. Tomasi, M. Cossi, J. M. Millam, M. Klene, C. Adamo, R. Cammi, 
 J. W. Ochterski, R. L. Martin, K. Morokuma, O. Farkas, 
 J. B. Foresman, and D. J. Fox, Gaussian, Inc., Wallingford CT, 2019.
 
 ******************************************
 Gaussian 16:  ES64L-G16RevC.02  7-Dec-2021
                30-Jan-2023 
 ******************************************
 %NProcShared=2
 Will use up to    2 processors via shared memory.
 %mem=110gb
 %chk=/scratch1/svicchi/G09-78655.pbs02/02-freq/FeFeFe-A-1xH2O-freq.chk
 ----------------------------------------------------------------------
 #p freq=raman scale=0.967 guess=read geom=allcheck gen um06l int=grid=
 ultrafine scf=(xqc,intrep,maxconventionalcycle=150) pop=(hirshfeld) no
 symm
 ----------------------------------------------------------------------
 1/10=4,29=7,30=1,38=1,114=967000/1,3;
 2/12=2,15=1,40=1/2;
 3/5=7,11=2,14=-4,25=1,30=1,71=2,74=-53,75=-5,116=2,140=1/1,2,3;
 4/5=1/1;
 5/5=2,8=3,13=1,17=20,38=6,85=150,98=1/2,8;
 8/6=4,10=90,11=11/1;
 10/13=10,15=4,31=1/2;
 11/6=3,8=1,9=11,15=111,16=1,31=1/1,2,10;
 10/6=1,31=1/2;
 6/7=2,8=2,9=2,10=2,28=1,79=1/1;
 7/8=1,10=1,25=1,30=1/1,2,3,16;
 1/10=4,30=1/3;
 99//99;
 Leave Link    1 at Mon Jan 30 04:20:18 2023, MaxMem= 14763950080 cpu:               0.0 elap:               0.1
 (Enter /software/commercial/gaussian/g16/AVX2/g16/l101.exe)
 Structure from the checkpoint file:  "/scratch1/svicchi/G09-78655.pbs02/02-freq/FeFeFe-A-1xH2O-freq.chk"
 --------------
 FeFeFe-A-1xH2O
 --------------
 Charge =  0 Multiplicity =15
 No Z-Matrix found in chk file; cartesian coordinates used.
  O                                                 1.527009902726     -2.174419728422     -1.528538111546
  O                                                -0.716555701382     -2.276490445177     -1.333280177831
  C                                                 0.388585231864     -2.608730469881     -1.822767236444
  H                                                 0.354601175542     -3.375406825247     -2.615179440697
  O                                                 1.936820387532      2.209193753660      1.439927896618
  O                                                 3.104091582311      0.295100929266      1.197619474625
  C                                                 2.888801435057      1.431264989121      1.682186748997
  H                                                 3.629974098157      1.788878992980      2.417150487143
  O                                                -2.219574387849      0.126870963912     -1.204665010271
  O                                                 2.827228076170      0.342818431385     -1.630796586218
  O                                                 1.734383752148      2.302237966400     -1.404735564329
  C                                                 2.565777550608      1.528140991487     -1.937278114028
  H                                                 3.139699229624      1.940495779515     -2.786017026645
  O                                                -0.475476603452     -2.304180355820      1.478768445934
  O                                                 1.768498404635     -2.209667675927      1.284965304036
  C                                                 0.695786002351     -2.650456934488      1.760678706961
  H                                                 0.795169071484     -3.437651599700      2.527156867740
  Fe                                               -1.106563910336     -0.921728041825      0.128650474689
  O                                                -2.024296447149      0.072394120175      1.629383328929
  Fe                                                0.355748762678      2.069795515973      0.180427610888
  O                                                -1.006923221670      2.083988449065      1.678007250666
  O                                                -1.267999723983      2.170842261629     -1.160996746780
  Fe                                                2.039676132443     -0.784741856084     -0.139459159727
  O                                                 0.426306961297      0.157099576098      0.020219311310
  C                                                -1.833354998578      1.229153486671      2.073779421171
  H                                                -2.471209299269      1.530015729188      2.922246079664
  C                                                -2.108963424063      1.324942786235     -1.550493356174
  H                                                -2.844665205545      1.678175833683     -2.294592363878
  O                                                 0.242402346091      4.200358533106     -0.214243757816
  H                                                 0.951239074687      4.265592567056     -0.871916778486
  H                                                -0.574426254132      4.218000275966     -0.734788978500
 Recover connectivity data from disk.
 ITRead=  0  0  0  0  0  0  0  0  0  0  0  0  0  0  0  0  0  0  0  0
 ITRead=  0  0  0  0  0  0  0  0  0  0  0
 MicOpt= -1 -1 -1 -1 -1 -1 -1 -1 -1 -1 -1 -1 -1 -1 -1 -1 -1 -1 -1 -1
 MicOpt= -1 -1 -1 -1 -1 -1 -1 -1 -1 -1 -1
 NAtoms=     31 NQM=       31 NQMF=       0 NMMI=      0 NMMIF=      0
                NMic=       0 NMicF=      0.
                    Isotopes and Nuclear Properties:
 (Nuclear quadrupole moments (NQMom) in fm**2, nuclear magnetic moments (NMagM)
  in nuclear magnetons)

  Atom         1           2           3           4           5           6           7           8           9          10
 IAtWgt=          16          16          12           1          16          16          12           1          16          16
 AtmWgt=  15.9949146  15.9949146  12.0000000   1.0078250  15.9949146  15.9949146  12.0000000   1.0078250  15.9949146  15.9949146
 NucSpn=           0           0           0           1           0           0           0           1           0           0
 AtZEff=   5.6000000   5.6000000   3.6000000   1.0000000   5.6000000   5.6000000   3.6000000   1.0000000   5.6000000   5.6000000
 NQMom=    0.0000000   0.0000000   0.0000000   0.0000000   0.0000000   0.0000000   0.0000000   0.0000000   0.0000000   0.0000000
 NMagM=    0.0000000   0.0000000   0.0000000   2.7928460   0.0000000   0.0000000   0.0000000   2.7928460   0.0000000   0.0000000
 AtZNuc=   8.0000000   8.0000000   6.0000000   1.0000000   8.0000000   8.0000000   6.0000000   1.0000000   8.0000000   8.0000000

  Atom        11          12          13          14          15          16          17          18          19          20
 IAtWgt=          16          12           1          16          16          12           1          56          16          56
 AtmWgt=  15.9949146  12.0000000   1.0078250  15.9949146  15.9949146  12.0000000   1.0078250  55.9349393  15.9949146  55.9349393
 NucSpn=           0           0           1           0           0           0           1           0           0           0
 AtZEff=   5.6000000   3.6000000   1.0000000   5.6000000   5.6000000   3.6000000   1.0000000  25.2200000   5.6000000  25.2200000
 NQMom=    0.0000000   0.0000000   0.0000000   0.0000000   0.0000000   0.0000000   0.0000000   0.0000000   0.0000000   0.0000000
 NMagM=    0.0000000   0.0000000   2.7928460   0.0000000   0.0000000   0.0000000   2.7928460   0.0000000   0.0000000   0.0000000
 AtZNuc=   8.0000000   6.0000000   1.0000000   8.0000000   8.0000000   6.0000000   1.0000000  26.0000000   8.0000000  26.0000000

  Atom        21          22          23          24          25          26          27          28          29          30
 IAtWgt=          16          16          56          16          12           1          12           1          16           1
 AtmWgt=  15.9949146  15.9949146  55.9349393  15.9949146  12.0000000   1.0078250  12.0000000   1.0078250  15.9949146   1.0078250
 NucSpn=           0           0           0           0           0           1           0           1           0           1
 AtZEff=   5.6000000   5.6000000  25.2200000   5.6000000   3.6000000   1.0000000   3.6000000   1.0000000   5.6000000   1.0000000
 NQMom=    0.0000000   0.0000000   0.0000000   0.0000000   0.0000000   0.0000000   0.0000000   0.0000000   0.0000000   0.0000000
 NMagM=    0.0000000   0.0000000   0.0000000   0.0000000   0.0000000   2.7928460   0.0000000   2.7928460   0.0000000   2.7928460
 AtZNuc=   8.0000000   8.0000000  26.0000000   8.0000000   6.0000000   1.0000000   6.0000000   1.0000000   8.0000000   1.0000000

  Atom        31
 IAtWgt=           1
 AtmWgt=   1.0078250
 NucSpn=           1
 AtZEff=   1.0000000
 NQMom=    0.0000000
 NMagM=    2.7928460
 AtZNuc=   1.0000000
 Leave Link  101 at Mon Jan 30 04:20:18 2023, MaxMem= 14763950080 cpu:               0.1 elap:               0.2
 (Enter /software/commercial/gaussian/g16/AVX2/g16/l103.exe)

 GradGradGradGradGradGradGradGradGradGradGradGradGradGradGradGradGradGrad
 Berny optimization.
 Initialization pass.
 Trust Radius=3.00D-01 FncErr=1.00D-07 GrdErr=1.00D-07 EigMax=2.50D+02 EigMin=1.00D-04
 Number of steps in this run=      2 maximum allowed number of steps=      2.
 GradGradGradGradGradGradGradGradGradGradGradGradGradGradGradGradGradGrad

 Leave Link  103 at Mon Jan 30 04:20:19 2023, MaxMem= 14763950080 cpu:               0.1 elap:               0.1
 (Enter /software/commercial/gaussian/g16/AVX2/g16/l202.exe)
                          Input orientation:                          
 ---------------------------------------------------------------------
 Center     Atomic      Atomic             Coordinates (Angstroms)
 Number     Number       Type             X           Y           Z
 ---------------------------------------------------------------------
      1          8           0        1.527010   -2.174420   -1.528538
      2          8           0       -0.716556   -2.276490   -1.333280
      3          6           0        0.388585   -2.608730   -1.822767
      4          1           0        0.354601   -3.375407   -2.615179
      5          8           0        1.936820    2.209194    1.439928
      6          8           0        3.104092    0.295101    1.197619
      7          6           0        2.888801    1.431265    1.682187
      8          1           0        3.629974    1.788879    2.417150
      9          8           0       -2.219574    0.126871   -1.204665
     10          8           0        2.827228    0.342818   -1.630797
     11          8           0        1.734384    2.302238   -1.404736
     12          6           0        2.565778    1.528141   -1.937278
     13          1           0        3.139699    1.940496   -2.786017
     14          8           0       -0.475477   -2.304180    1.478768
     15          8           0        1.768498   -2.209668    1.284965
     16          6           0        0.695786   -2.650457    1.760679
     17          1           0        0.795169   -3.437652    2.527157
     18         26           0       -1.106564   -0.921728    0.128650
     19          8           0       -2.024296    0.072394    1.629383
     20         26           0        0.355749    2.069796    0.180428
     21          8           0       -1.006923    2.083988    1.678007
     22          8           0       -1.268000    2.170842   -1.160997
     23         26           0        2.039676   -0.784742   -0.139459
     24          8           0        0.426307    0.157100    0.020219
     25          6           0       -1.833355    1.229153    2.073779
     26          1           0       -2.471209    1.530016    2.922246
     27          6           0       -2.108963    1.324943   -1.550493
     28          1           0       -2.844665    1.678176   -2.294592
     29          8           0        0.242402    4.200359   -0.214244
     30          1           0        0.951239    4.265593   -0.871917
     31          1           0       -0.574426    4.218000   -0.734789
 ---------------------------------------------------------------------
                    Distance matrix (angstroms):
                    1          2          3          4          5
     1  O    0.000000
     2  O    2.254358   0.000000
     3  C    1.253478   1.253522   0.000000
     4  H    1.999425   1.999565   1.103116   0.000000
     5  O    5.309972   5.903596   6.021180   7.080613   0.000000
     6  O    4.002206   5.255081   4.992890   5.964039   2.254992
     7  C    5.016392   5.986576   5.904011   6.927743   1.253048
     8  H    5.974835   7.034577   6.915379   7.919739   1.999599
     9  O    4.408824   2.837561   3.829891   4.569670   5.348416
    10  O    2.835051   4.416752   3.833467   4.572537   3.702098
    11  O    4.483168   5.193935   5.109162   5.966961   2.853375
    12  C    3.867178   5.061002   4.676215   5.421589   3.502134
    13  H    4.595057   5.896111   5.402956   6.003730   4.402014
    14  O    3.615340   2.822499   3.426294   4.312420   5.117737
    15  O    2.824068   3.610425   3.423655   4.309197   4.424780
    16  C    3.425856   3.421570   3.596832   4.448606   5.025858
    17  H    4.310453   4.305413   4.446826   5.161550   5.862789
    18  Fe   3.354284   2.030943   2.981523   3.960321   4.558981
    19  O    5.256655   4.000602   4.992772   5.963455   4.504692
    20  Fe   4.722899   4.725606   5.089447   6.120919   2.026218
    21  O    5.902270   5.307159   6.018677   7.077443   2.956008
    22  O    5.179620   4.484701   5.101620   5.958889   4.127608
    23  Fe   2.030658   3.353705   2.981034   3.959825   3.386546
    24  O    3.007687   3.010059   3.323829   4.407842   2.916901
    25  C    5.987742   5.014463   5.903342   6.926432   3.946704
    26  H    7.036908   5.973090   6.915403   7.919057   4.699923
    27  C    5.046417   3.867338   4.667512   5.412577   5.108120
    28  H    5.877149   4.592642   5.390185   5.989723   6.090257
    29  O    6.634409   6.642395   6.998029   7.947912   3.093877
    30  H    6.498955   6.767071   6.962544   7.860014   3.247272
    31  H    6.775626   6.523557   6.979638   7.877740   3.882146
                    6          7          8          9         10
     6  O    0.000000
     7  C    1.253804   0.000000
     8  H    1.998795   1.103357   0.000000
     9  O    5.843004   6.010895   7.077926   0.000000
    10  O    2.842335   3.487745   4.372799   5.069363   0.000000
    11  O    3.560471   3.408865   4.296931   4.517304   2.254936
    12  C    3.411415   3.635142   4.490161   5.039829   1.251909
    13  H    4.310215   4.504122   5.228414   5.874668   1.996183
    14  O    4.432676   5.031232   5.872684   4.019043   5.252033
    15  O    2.839948   3.830046   4.553604   5.249990   4.017183
    16  C    3.846204   4.634213   5.361727   5.000614   5.000485
    17  H    4.586091   5.366900   5.946835   5.976704   5.975767
    18  Fe   4.511429   4.890092   5.917720   2.028813   4.491041
    19  O    5.151348   5.097828   5.961348   2.841290   5.851427
    20  Fe   3.426019   3.013197   3.975223   3.510801   3.517271
    21  O    4.509028   3.950030   4.704704   3.689259   5.355425
    22  O    5.310053   5.090154   6.077761   2.255043   4.509243
    23  Fe   2.021588   2.991671   3.960912   4.484074   2.028723
    24  O    2.928455   3.232571   4.321049   2.915809   2.919720
    25  C    5.100832   4.742674   5.502650   3.480286   6.019178
    26  H    5.965177   5.502473   6.127526   4.366180   7.086118
    27  C    5.982361   5.953081   6.992341   1.251882   5.033588
    28  H    7.035350   6.982004   8.008354   1.996303   5.864655
    29  O    5.043180   4.274080   4.920885   4.861642   4.854746
    30  H    4.968154   4.279136   4.911995   5.224346   4.413999
    31  H    5.714441   5.059803   5.788984   4.434482   5.233652
                   11         12         13         14         15
    11  O    0.000000
    12  C    1.254609   0.000000
    13  H    2.003424   1.104437   0.000000
    14  O    5.866615   5.967017   7.019627   0.000000
    15  O    5.252899   4.998972   5.973018   2.254311   0.000000
    16  C    5.968896   5.884933   6.908111   1.253490   1.253519
    17  H    7.020558   6.908352   7.915245   1.999604   1.999589
    18  Fe   4.562479   4.874014   5.892229   2.032797   3.355866
    19  O    5.320316   5.992416   7.046447   2.840710   4.439789
    20  Fe   2.113624   3.108423   4.070245   4.637703   4.640008
    21  O    4.131065   5.113066   6.094471   4.424721   5.127663
    22  O    3.015125   3.964029   4.703356   5.255690   5.864462
    23  Fe   3.350160   2.976300   3.954901   3.354601   2.032962
    24  O    2.888456   3.207629   4.291615   2.999746   3.000441
    25  C    5.097091   5.960733   6.989628   3.831752   5.041931
    26  H    6.083265   6.999015   8.014678   4.557152   5.885664
    27  C    3.968333   4.695114   5.427143   5.001524   5.963892
    28  H    4.706271   5.424304   6.010235   5.975824   7.014972
    29  O    2.691866   3.937977   4.485011   6.759487   6.757591
    30  H    2.179902   3.351920   3.722796   7.122019   6.873794
    31  H    3.074016   4.306066   4.815526   6.888285   7.133275
                   16         17         18         19         20
    16  C    0.000000
    17  H    1.103196   0.000000
    18  Fe   2.983368   3.962233   0.000000
    19  O    3.850975   4.590839   2.020572   0.000000
    20  Fe   4.989349   6.002683   3.330203   3.428367   0.000000
    21  O    5.032000   5.870017   3.383011   2.254756   2.024802
    22  O    5.969721   7.022417   3.354585   3.572351   2.108599
    23  Fe   2.982861   3.962016   3.160613   4.514350   3.329613
    24  O    3.314241   4.398071   1.877583   2.932924   1.920690
    25  C    4.641763   5.375292   2.989656   1.253810   3.013907
    26  H    5.371727   5.958443   3.959480   1.998971   3.975000
    27  C    5.885090   6.909669   2.978567   3.418722   3.102531
    28  H    6.907755   7.916398   3.956337   4.318463   4.064694
    29  O    7.144197   8.133881   5.307830   5.057368   2.169772
    30  H    7.404563   8.421284   5.669566   5.717799   2.506703
    31  H    7.417311   8.433569   5.238846   4.987733   2.513490
                   21         22         23         24         25
    21  O    0.000000
    22  O    2.852306   0.000000
    23  Fe   4.562298   4.551894   0.000000
    24  O    2.918100   2.884633   1.874973   0.000000
    25  C    1.253143   3.416165   4.894341   3.236121   0.000000
    26  H    1.999787   4.304793   5.922856   4.324611   1.103300
    27  C    3.494833   1.254780   4.863435   3.202904   3.635999
    28  H    4.395853   2.003405   5.879401   4.286174   4.506333
    29  O    3.101685   2.701220   5.299718   4.054225   4.286243
    30  H    3.885345   3.065382   5.217956   4.236883   5.064687
    31  H    3.250022   2.203078   5.675859   4.249990   4.290240
                   26         27         28         29         30
    26  H    0.000000
    27  C    4.492068   0.000000
    28  H    5.232287   1.104407   0.000000
    29  O    4.932746   3.947468   4.496581   0.000000
    30  H    5.795878   4.297991   4.809118   0.969143   0.000000
    31  H    4.919040   3.374901   3.746689   0.968756   1.532555
                   31
    31  H    0.000000
 Symmetry turned off by external request.
 Stoichiometry    C6H8Fe3O14(15)
 Framework group  C1[X(C6H8Fe3O14)]
 Deg. of freedom    87
 Full point group                 C1      NOp   1
 Rotational constants (GHZ):           0.2666994           0.2287748           0.1826328
 Leave Link  202 at Mon Jan 30 04:20:19 2023, MaxMem= 14763950080 cpu:               0.1 elap:               0.1
 (Enter /software/commercial/gaussian/g16/AVX2/g16/l301.exe)
 General basis read from cards:  (5D, 7F)
 Centers:       4      8     13     17     26     28     30     31
 S 3 1.00
     Exponent=  3.4061341000D+01 Coefficients=  6.0251978000D-03
     Exponent=  5.1235746000D+00 Coefficients=  4.5021094000D-02
     Exponent=  1.1646626000D+00 Coefficients=  2.0189726000D-01
 S 1 1.00
     Exponent=  3.2723041000D-01 Coefficients=  1.0000000000D+00
 S 1 1.00
     Exponent=  1.0307241000D-01 Coefficients=  1.0000000000D+00
 P 1 1.00
     Exponent=  8.0000000000D-01 Coefficients=  1.0000000000D+00
 ****
 Centers:       1      2      5      6      9     10     11     14     15     19
 Centers:      21     22     24     29
 S 6 1.00
     Exponent=  2.7032382631D+04 Coefficients=  2.1726302465D-04
     Exponent=  4.0523871392D+03 Coefficients=  1.6838662199D-03
     Exponent=  9.2232722710D+02 Coefficients=  8.7395616265D-03
     Exponent=  2.6124070989D+02 Coefficients=  3.5239968808D-02
     Exponent=  8.5354641351D+01 Coefficients=  1.1153519115D-01
     Exponent=  3.1035035245D+01 Coefficients=  2.5588953961D-01
 S 2 1.00
     Exponent=  1.2260860728D+01 Coefficients=  3.9768730901D-01
     Exponent=  4.9987076005D+00 Coefficients=  2.4627849430D-01
 S 1 1.00
     Exponent=  1.1703108158D+00 Coefficients=  1.0000000000D+00
 S 1 1.00
     Exponent=  4.6474740994D-01 Coefficients=  1.0000000000D+00
 S 1 1.00
     Exponent=  1.8504536357D-01 Coefficients=  1.0000000000D+00
 P 4 1.00
     Exponent=  6.3274954801D+01 Coefficients=  6.0685103418D-03
     Exponent=  1.4627049379D+01 Coefficients=  4.1912575824D-02
     Exponent=  4.4501223456D+00 Coefficients=  1.6153841088D-01
     Exponent=  1.5275799647D+00 Coefficients=  3.5706951311D-01
 P 1 1.00
     Exponent=  5.2935117943D-01 Coefficients=  4.4794207502D-01
 P 1 1.00
     Exponent=  1.7478421270D-01 Coefficients=  2.4446069663D-01
 D 1 1.00
     Exponent=  2.3140000000D+00 Coefficients=  1.0000000000D+00
 D 1 1.00
     Exponent=  6.4500000000D-01 Coefficients=  1.0000000000D+00
 F 1 1.00
     Exponent=  1.4280000000D+00 Coefficients=  1.0000000000D+00
 ****
 Centers:       3      7     12     16     25     27
 S 6 1.00
     Exponent=  1.3575349682D+04 Coefficients=  2.2245814352D-04
     Exponent=  2.0352333680D+03 Coefficients=  1.7232738252D-03
     Exponent=  4.6322562359D+02 Coefficients=  8.9255715314D-03
     Exponent=  1.3120019598D+02 Coefficients=  3.5727984502D-02
     Exponent=  4.2853015891D+01 Coefficients=  1.1076259931D-01
     Exponent=  1.5584185766D+01 Coefficients=  2.4295627626D-01
 S 2 1.00
     Exponent=  6.2067138508D+00 Coefficients=  4.1440263448D-01
     Exponent=  2.5764896527D+00 Coefficients=  2.3744968655D-01
 S 1 1.00
     Exponent=  5.7696339419D-01 Coefficients=  1.0000000000D+00
 S 1 1.00
     Exponent=  2.2972831358D-01 Coefficients=  1.0000000000D+00
 S 1 1.00
     Exponent=  9.5164440028D-02 Coefficients=  1.0000000000D+00
 P 4 1.00
     Exponent=  3.4697232244D+01 Coefficients=  5.3333657805D-03
     Exponent=  7.9582622826D+00 Coefficients=  3.5864109092D-02
     Exponent=  2.3780826883D+00 Coefficients=  1.4215873329D-01
     Exponent=  8.1433208183D-01 Coefficients=  3.4270471845D-01
 P 1 1.00
     Exponent=  2.8887547253D-01 Coefficients=  4.6445822433D-01
 P 1 1.00
     Exponent=  1.0056823671D-01 Coefficients=  2.4955789874D-01
 D 1 1.00
     Exponent=  1.0970000000D+00 Coefficients=  1.0000000000D+00
 D 1 1.00
     Exponent=  3.1800000000D-01 Coefficients=  1.0000000000D+00
 F 1 1.00
     Exponent=  7.6100000000D-01 Coefficients=  1.0000000000D+00
 ****
 Centers:      18     20     23
 S 8 1.00
     Exponent=  3.0078484637D+05 Coefficients=  2.2806273096D-04
     Exponent=  4.5088970557D+04 Coefficients=  1.7681788761D-03
     Exponent=  1.0262516317D+04 Coefficients=  9.1927083490D-03
     Exponent=  2.9052897293D+03 Coefficients=  3.7355495807D-02
     Exponent=  9.4611487137D+02 Coefficients=  1.2151108426D-01
     Exponent=  3.3987832894D+02 Coefficients=  2.8818881468D-01
     Exponent=  1.3194425588D+02 Coefficients=  4.1126612677D-01
     Exponent=  5.2111494077D+01 Coefficients=  2.1518583573D-01
 S 4 1.00
     Exponent=  3.2948839267D+02 Coefficients= -2.4745216477D-02
     Exponent=  1.0192332739D+02 Coefficients= -1.1683089050D-01
     Exponent=  1.6240462745D+01 Coefficients=  5.5293621136D-01
     Exponent=  6.8840675801D+00 Coefficients=  5.3601640182D-01
 S 2 1.00
     Exponent=  1.0470693782D+01 Coefficients= -2.2912708577D-01
     Exponent=  1.7360039648D+00 Coefficients=  7.1159319984D-01
 S 1 1.00
     Exponent=  7.2577288979D-01 Coefficients=  1.0000000000D+00
 S 1 1.00
     Exponent=  1.1595528203D-01 Coefficients=  1.0000000000D+00
 S 1 1.00
     Exponent=  4.1968227746D-02 Coefficients=  1.0000000000D+00
 P 6 1.00
     Exponent=  1.5853959970D+03 Coefficients=  2.3793960179D-03
     Exponent=  3.7538006499D+02 Coefficients=  1.9253154755D-02
     Exponent=  1.2031816501D+02 Coefficients=  9.0021836536D-02
     Exponent=  4.4788749031D+01 Coefficients=  2.5798172356D-01
     Exponent=  1.7829278584D+01 Coefficients=  4.1492649744D-01
     Exponent=  7.2247153786D+00 Coefficients=  2.4207474784D-01
 P 3 1.00
     Exponent=  2.8143219756D+01 Coefficients= -2.9041755152D-02
     Exponent=  3.8743241412D+00 Coefficients=  5.5312260343D-01
     Exponent=  1.5410752281D+00 Coefficients=  9.6771136842D-01
 P 1 1.00
     Exponent=  5.8285615250D-01 Coefficients=  1.0000000000D+00
 P 1 1.00
     Exponent=  1.3491500000D-01 Coefficients=  1.0000000000D+00
 D 4 1.00
     Exponent=  6.1996675034D+01 Coefficients=  1.1971972255D-02
     Exponent=  1.7873732552D+01 Coefficients=  7.3210135410D-02
     Exponent=  6.2744782934D+00 Coefficients=  2.3103094314D-01
     Exponent=  2.3552337175D+00 Coefficients=  3.9910706494D-01
 D 1 1.00
     Exponent=  8.5432239901D-01 Coefficients=  4.1391589765D-01
 D 1 1.00
     Exponent=  2.7869254413D-01 Coefficients=  2.1909269782D-01
 D 1 1.00
     Exponent=  9.1000000000D-02 Coefficients=  1.0000000000D+00
 F 1 1.00
     Exponent=  1.5980000000D+00 Coefficients=  1.0000000000D+00
 ****
 Ernie: Thresh=  0.10000D-02 Tol=  0.10000D-05 Strict=F.
   803 basis functions,  1390 primitive gaussians,   924 cartesian basis functions
   124 alpha electrons      110 beta electrons
       nuclear repulsion energy      4128.5221046797 Hartrees.
 IExCor= 4134 DFT=T Ex+Corr=M06L ExCW=0 ScaHFX=  0.000000
 ScaDFX=  1.000000  1.000000  1.000000  1.000000 ScalE2=  1.000000  1.000000
 IRadAn=      5 IRanWt=     -1 IRanGd=            0 ICorTp=0 IEmpDi=  4
 NAtoms=   31 NActive=   31 NUniq=   31 SFac= 1.00D+00 NAtFMM=   60 NAOKFM=F Big=F
 Integral buffers will be    131072 words long.
 Raffenetti 2 integral format.
 Two-electron integral symmetry is turned off.
 Leave Link  301 at Mon Jan 30 04:20:19 2023, MaxMem= 14763950080 cpu:               0.1 elap:               0.1
 (Enter /software/commercial/gaussian/g16/AVX2/g16/l302.exe)
 NPDir=0 NMtPBC=     1 NCelOv=     1 NCel=       1 NClECP=     1 NCelD=      1
         NCelK=      1 NCelE2=     1 NClLst=     1 CellRange=     0.0.
 One-electron integrals computed using PRISM.
 NBasis=   803 RedAO= T EigKep=  5.37D-04  NBF=   803
 NBsUse=   803 1.00D-06 EigRej= -1.00D+00 NBFU=   803
 Precomputing XC quadrature grid using
 IXCGrd= 4 IRadAn=           5 IRanWt=          -1 IRanGd=           0 AccXCQ= 0.00D+00.
 Generated NRdTot=       0 NPtTot=           0 NUsed=           0 NTot=          32
 NSgBfM=   918   918   918   918   918 MxSgAt=    31 MxSgA2=    31.
 Leave Link  302 at Mon Jan 30 04:20:21 2023, MaxMem= 14763950080 cpu:               2.2 elap:               1.4
 (Enter /software/commercial/gaussian/g16/AVX2/g16/l303.exe)
 DipDrv:  MaxL=1.
 Leave Link  303 at Mon Jan 30 04:20:21 2023, MaxMem= 14763950080 cpu:               0.2 elap:               0.2
 (Enter /software/commercial/gaussian/g16/AVX2/g16/l401.exe)
 Initial guess from the checkpoint file:  "/scratch1/svicchi/G09-78655.pbs02/02-freq/FeFeFe-A-1xH2O-freq.chk"
 B after Tr=     0.000000    0.000000    0.000000
         Rot=    1.000000    0.000000    0.000000    0.000000 Ang=   0.00 deg.
 Guess basis will be translated and rotated to current coordinates.
 JPrj=2 DoOrth=T DoCkMO=T.
 Initial guess <Sx>= 0.0000 <Sy>= 0.0000 <Sz>= 7.0000 <S**2>=56.0627 S= 7.0042
 Leave Link  401 at Mon Jan 30 04:20:23 2023, MaxMem= 14763950080 cpu:               1.8 elap:               1.6
 (Enter /software/commercial/gaussian/g16/AVX2/g16/l502.exe)
 Two-electron integral symmetry not used.
 UHF open shell SCF:
 Using DIIS extrapolation, IDIIS=  1040.
 NGot= 14763950080 LenX= 14762230462 LenY= 14761375762
 Requested convergence on RMS density matrix=1.00D-08 within 150 cycles.
 Requested convergence on MAX density matrix=1.00D-06.
 Requested convergence on             energy=1.00D-06.
 No special actions if energy rises.
 Fock matrices will be formed incrementally for  20 cycles.

 Cycle   1  Pass 1  IDiag  1:
 FoFJK:  IHMeth= 1 ICntrl=     500 DoSepK=F KAlg= 0 I1Cent=           0 FoldK=F
 IRaf= 800000000 NMat=       1 IRICut=       1 DoRegI=T DoRafI=F ISym2E= 0 IDoP0=0 IntGTp=1.
 FoFCou: FMM=F IPFlag=           0 FMFlag=      100000 FMFlg1=           0
         NFxFlg=           0 DoJE=T BraDBF=F KetDBF=F FulRan=T
         wScrn=  0.000000 ICntrl=       500 IOpCl=  0 I1Cent=           0 NGrid=           0
         NMat0=    1 NMatS0=      1 NMatT0=    0 NMatD0=    1 NMtDS0=    0 NMtDT0=    0
 Symmetry not used in FoFCou.
 E= -5078.54373818131    
 DIIS: error= 1.10D-07 at cycle   1 NSaved=   1.
 NSaved= 1 IEnMin= 1 EnMin= -5078.54373818131     IErMin= 1 ErrMin= 1.10D-07
 ErrMax= 1.10D-07  0.00D+00 EMaxC= 1.00D-01 BMatC= 1.52D-11 BMatP= 1.52D-11
 IDIUse=1 WtCom= 1.00D+00 WtEn= 0.00D+00
 Coeff-Com:  0.100D+01
 Coeff:      0.100D+01
 Gap=     0.178 Goal=   None    Shift=    0.000
 Gap=     0.014 Goal=   None    Shift=    0.000
 RMSDP=3.78D-08 MaxDP=9.95D-06              OVMax= 4.99D-05

 Cycle   2  Pass 1  IDiag  1:
 RMSU=  3.78D-08    CP:  1.00D+00
 E= -5078.54373818029     Delta-E=        0.000000001026 Rises=F Damp=F
 DIIS: error= 2.15D-06 at cycle   2 NSaved=   2.
 NSaved= 2 IEnMin= 1 EnMin= -5078.54373818131     IErMin= 1 ErrMin= 1.10D-07
 ErrMax= 2.15D-06  0.00D+00 EMaxC= 1.00D-01 BMatC= 5.67D-09 BMatP= 1.52D-11
 IDIUse=1 WtCom= 1.00D+00 WtEn= 0.00D+00
 Coeff-Com:  0.951D+00 0.486D-01
 Coeff:      0.951D+00 0.486D-01
 Gap=     0.178 Goal=   None    Shift=    0.000
 Gap=     0.014 Goal=   None    Shift=    0.000
 RMSDP=3.59D-08 MaxDP=9.50D-06 DE= 1.03D-09 OVMax= 4.75D-05

 Cycle   3  Pass 1  IDiag  1:
 RMSU=  9.68D-10    CP:  1.00D+00  4.95D-02
 E= -5078.54373818134     Delta-E=       -0.000000001055 Rises=F Damp=F
 DIIS: error= 3.84D-08 at cycle   3 NSaved=   3.
 NSaved= 3 IEnMin= 3 EnMin= -5078.54373818134     IErMin= 3 ErrMin= 3.84D-08
 ErrMax= 3.84D-08  0.00D+00 EMaxC= 1.00D-01 BMatC= 3.65D-12 BMatP= 1.52D-11
 IDIUse=1 WtCom= 1.00D+00 WtEn= 0.00D+00
 Coeff-Com:  0.716D+00 0.365D-01 0.247D+00
 Coeff:      0.716D+00 0.365D-01 0.247D+00
 Gap=     0.178 Goal=   None    Shift=    0.000
 Gap=     0.014 Goal=   None    Shift=    0.000
 RMSDP=1.52D-09 MaxDP=3.01D-07 DE=-1.06D-09 OVMax= 1.83D-06

 SCF Done:  E(UM06L) =  -5078.54373818     A.U. after    3 cycles
            NFock=  3  Conv=0.15D-08     -V/T= 2.0016
 <Sx>= 0.0000 <Sy>= 0.0000 <Sz>= 7.0000 <S**2>=56.0627 S= 7.0042
 <L.S>=  0.00000000000    
 KE= 5.070318391219D+03 PE=-2.031491670941D+04 EE= 6.037532475331D+03
 Annihilation of the first spin contaminant:
 S**2 before annihilation    56.0627,   after    56.0003
 Leave Link  502 at Mon Jan 30 04:27:34 2023, MaxMem= 14763950080 cpu:             854.8 elap:             430.7
 (Enter /software/commercial/gaussian/g16/AVX2/g16/l508.exe)
 QCSCF skips out because SCF is already converged.
 Leave Link  508 at Mon Jan 30 04:27:35 2023, MaxMem= 14763950080 cpu:               0.0 elap:               0.1
 (Enter /software/commercial/gaussian/g16/AVX2/g16/l801.exe)
 DoSCS=F DFT=T ScalE2(SS,OS)=  1.000000  1.000000
 Range of M.O.s used for correlation:     1   803
 NBasis=   803 NAE=   124 NBE=   110 NFC=     0 NFV=     0
 NROrb=    803 NOA=   124 NOB=   110 NVA=   679 NVB=   693

 **** Warning!!: The smallest beta delta epsilon is  0.14343910D-01

 Leave Link  801 at Mon Jan 30 04:27:35 2023, MaxMem= 14763950080 cpu:               0.1 elap:               0.1
 (Enter /software/commercial/gaussian/g16/AVX2/g16/l1002.exe)
 Minotr:  UHF open shell wavefunction.
          Direct CPHF calculation.
          Differentiating once with respect to electric field.
                with respect to dipole field.
          Electric field/nuclear overlap derivatives assumed to be zero.
          Requested convergence is 1.0D-08 RMS, and 1.0D-07 maximum.
          Secondary convergence is 1.0D-12 RMS, and 1.0D-12 maximum.
          NewPWx=F KeepS1=T KeepF1=T KeepIn=T MapXYZ=F SortEE=F KeepMc=T.
         9519 words used for storage of precomputed grid.
 Two-electron integral symmetry not used.
          MDV=   14763950080 using IRadAn=       1.
          Solving linear equations simultaneously, MaxMat=     384.
          There are     3 degrees of freedom in the 1st order CPHF.  IDoFFX=0 NUNeed=     3.
      3 vectors produced by pass  0 Test12= 5.35D-12 3.33D-08 XBig12= 1.78D+04 9.99D+01.
 AX will form     3 AO Fock derivatives at one time.
 FoFJK:  IHMeth= 1 ICntrl=     500 DoSepK=F KAlg= 0 I1Cent=           0 FoldK=F
 IRaf= 800000000 NMat=       3 IRICut=       1 DoRegI=T DoRafI=F ISym2E= 0 IDoP0=0 IntGTp=1.
 FoFCou: FMM=F IPFlag=           0 FMFlag=      100000 FMFlg1=           0
         NFxFlg=           0 DoJE=T BraDBF=F KetDBF=F FulRan=T
         wScrn=  0.000000 ICntrl=       500 IOpCl=  0 I1Cent=           0 NGrid=           0
         NMat0=    3 NMatS0=      3 NMatT0=    0 NMatD0=    3 NMtDS0=    0 NMtDT0=    0
 Symmetry not used in FoFCou.
      3 vectors produced by pass  1 Test12= 5.35D-12 3.33D-08 XBig12= 1.67D+05 1.13D+02.
      3 vectors produced by pass  2 Test12= 5.35D-12 3.33D-08 XBig12= 1.21D+05 7.91D+01.
      3 vectors produced by pass  3 Test12= 5.35D-12 3.33D-08 XBig12= 1.04D+05 1.09D+02.
      3 vectors produced by pass  4 Test12= 5.35D-12 3.33D-08 XBig12= 8.70D+04 1.39D+02.
      3 vectors produced by pass  5 Test12= 5.35D-12 3.33D-08 XBig12= 4.21D+04 6.25D+01.
      3 vectors produced by pass  6 Test12= 5.35D-12 3.33D-08 XBig12= 1.94D+04 2.52D+01.
      3 vectors produced by pass  7 Test12= 5.35D-12 3.33D-08 XBig12= 1.12D+04 3.20D+01.
      3 vectors produced by pass  8 Test12= 5.35D-12 3.33D-08 XBig12= 5.98D+03 2.47D+01.
      3 vectors produced by pass  9 Test12= 5.35D-12 3.33D-08 XBig12= 9.57D+03 3.49D+01.
      3 vectors produced by pass 10 Test12= 5.35D-12 3.33D-08 XBig12= 2.94D+03 1.88D+01.
      3 vectors produced by pass 11 Test12= 5.35D-12 3.33D-08 XBig12= 7.43D+02 4.80D+00.
      3 vectors produced by pass 12 Test12= 5.35D-12 3.33D-08 XBig12= 7.93D+02 4.53D+00.
      3 vectors produced by pass 13 Test12= 5.35D-12 3.33D-08 XBig12= 4.91D+02 3.45D+00.
      3 vectors produced by pass 14 Test12= 5.35D-12 3.33D-08 XBig12= 1.48D+02 1.99D+00.
      3 vectors produced by pass 15 Test12= 5.35D-12 3.33D-08 XBig12= 4.04D+01 7.47D-01.
      3 vectors produced by pass 16 Test12= 5.35D-12 3.33D-08 XBig12= 1.65D+01 5.52D-01.
      3 vectors produced by pass 17 Test12= 5.35D-12 3.33D-08 XBig12= 3.77D+00 3.30D-01.
      3 vectors produced by pass 18 Test12= 5.35D-12 3.33D-08 XBig12= 4.91D-01 1.61D-01.
      3 vectors produced by pass 19 Test12= 5.35D-12 3.33D-08 XBig12= 3.88D-02 2.46D-02.
      3 vectors produced by pass 20 Test12= 5.35D-12 3.33D-08 XBig12= 4.43D-03 1.19D-02.
      3 vectors produced by pass 21 Test12= 5.35D-12 3.33D-08 XBig12= 4.69D-04 2.32D-03.
      3 vectors produced by pass 22 Test12= 5.35D-12 3.33D-08 XBig12= 4.27D-05 8.02D-04.
      3 vectors produced by pass 23 Test12= 5.35D-12 3.33D-08 XBig12= 5.35D-06 3.68D-04.
      3 vectors produced by pass 24 Test12= 5.35D-12 3.33D-08 XBig12= 3.98D-07 5.04D-05.
      3 vectors produced by pass 25 Test12= 5.35D-12 3.33D-08 XBig12= 3.36D-08 1.83D-05.
      2 vectors produced by pass 26 Test12= 5.35D-12 3.33D-08 XBig12= 3.83D-09 6.04D-06.
      2 vectors produced by pass 27 Test12= 5.35D-12 3.33D-08 XBig12= 2.90D-10 2.29D-06.
      2 vectors produced by pass 28 Test12= 5.35D-12 3.33D-08 XBig12= 2.18D-11 8.28D-07.
      2 vectors produced by pass 29 Test12= 5.35D-12 3.33D-08 XBig12= 1.29D-12 9.97D-08.
 InvSVY:  IOpt=1 It=  1 EMax= 5.68D-14
 Solved reduced A of dimension    86 with     3 vectors.
 End of Minotr F.D. properties file   721 does not exist.
 End of Minotr F.D. properties file   722 does not exist.
 End of Minotr F.D. properties file   788 does not exist.
 Leave Link 1002 at Mon Jan 30 06:18:07 2023, MaxMem= 14763950080 cpu:           13206.2 elap:            6631.7
 (Enter /software/commercial/gaussian/g16/AVX2/g16/l1101.exe)
 Using compressed storage, NAtomX=    31.
 Will process     32 centers per pass.
 Leave Link 1101 at Mon Jan 30 06:18:10 2023, MaxMem= 14763950080 cpu:               2.8 elap:               2.2
 (Enter /software/commercial/gaussian/g16/AVX2/g16/l1102.exe)
 Symmetrizing basis deriv contribution to polar:
 IMax=3 JMax=2 DiffMx= 0.00D+00
 Leave Link 1102 at Mon Jan 30 06:18:11 2023, MaxMem= 14763950080 cpu:               0.2 elap:               0.2
 (Enter /software/commercial/gaussian/g16/AVX2/g16/l1110.exe)
 Forming Gx(P) for the SCF density, NAtomX=    31.
 Integral derivatives from FoFJK, PRISM(SPDF).
 Do as many integral derivatives as possible in FoFJK.
 G2DrvN: MDV=   14763946689.
 G2DrvN: will do    32 centers at a time, making    1 passes.
 PxScal for G2LodP:  IOpCl= 1 ISclPx=1 IMOff=     1 NMtTot=     4 NTT=  322806 ScalPx= 2.54D+00
 Calling FoFCou, ICntrl=  3507 FMM=F I1Cent=   0 AccDes= 0.00D+00.
 FoFJK:  IHMeth= 1 ICntrl=    3507 DoSepK=F KAlg= 0 I1Cent=           0 FoldK=F
 IRaf=         0 NMat=       1 IRICut=       1 DoRegI=T DoRafI=F ISym2E= 0 IDoP0=0 IntGTp=1.
 FoFCou: FMM=F IPFlag=           0 FMFlag=      100000 FMFlg1=           0
         NFxFlg=           0 DoJE=F BraDBF=F KetDBF=F FulRan=T
         wScrn=  0.000000 ICntrl=      3507 IOpCl=  0 I1Cent=           0 NGrid=           0
         NMat0=    1 NMatS0=      1 NMatT0=    0 NMatD0=    4 NMtDS0=    3 NMtDT0=    0
 Symmetry not used in FoFCou.
 End of G2Drv F.D. properties file   721 does not exist.
 End of G2Drv F.D. properties file   722 does not exist.
 End of G2Drv F.D. properties file   788 does not exist.
 Leave Link 1110 at Mon Jan 30 08:06:44 2023, MaxMem= 14763950080 cpu:           12989.5 elap:            6513.0
 (Enter /software/commercial/gaussian/g16/AVX2/g16/l1002.exe)
 Minotr:  UHF open shell wavefunction.
          IDoAtm=1111111111111111111111111111111
          Direct CPHF calculation.
          Differentiating once with respect to electric field.
                with respect to dipole field.
          Differentiating once with respect to nuclear coordinates.
          Requested convergence is 1.0D-08 RMS, and 1.0D-07 maximum.
          Secondary convergence is 1.0D-12 RMS, and 1.0D-12 maximum.
          NewPWx=T KeepS1=F KeepF1=F KeepIn=T MapXYZ=F SortEE=F KeepMc=T.
         9519 words used for storage of precomputed grid.
 Two-electron integral symmetry not used.
          MDV=   14763950080 using IRadAn=       1.
          Solving linear equations simultaneously, MaxMat=     384.
 FoF2E skips out because all densities are zero.
 CalDSu exits because no D1Ps are significant.
 FoFJK:  IHMeth= 1 ICntrl=     500 DoSepK=F KAlg= 0 I1Cent=           0 FoldK=F
 IRaf= 800000000 NMat=      93 IRICut=       1 DoRegI=T DoRafI=F ISym2E= 0 IDoP0=3 IntGTp=3.
 FoFCou: FMM=F IPFlag=           0 FMFlag=      100000 FMFlg1=           0
         NFxFlg=           0 DoJE=F BraDBF=F KetDBF=F FulRan=T
         wScrn=  0.000000 ICntrl=       500 IOpCl=  0 I1Cent=           0 NGrid=           0
         NMat0=   93 NMatS0=     93 NMatT0=    0 NMatD0=   93 NMtDS0=    0 NMtDT0=    0
 Symmetry not used in FoFCou.
          There are    96 degrees of freedom in the 1st order CPHF.  IDoFFX=5 NUNeed=    96.
 Will reuse    3 saved solutions.
     90 vectors produced by pass  0 Test12= 1.67D-13 1.04D-09 XBig12= 1.06D+00 5.79D-01.
 AX will form    90 AO Fock derivatives at one time.
     90 vectors produced by pass  1 Test12= 1.67D-13 1.04D-09 XBig12= 3.52D+00 4.45D-01.
     90 vectors produced by pass  2 Test12= 1.67D-13 1.04D-09 XBig12= 5.65D-02 4.01D-02.
     90 vectors produced by pass  3 Test12= 1.67D-13 1.04D-09 XBig12= 1.99D-03 4.12D-03.
     90 vectors produced by pass  4 Test12= 1.67D-13 1.04D-09 XBig12= 3.44D-05 5.77D-04.
     90 vectors produced by pass  5 Test12= 1.67D-13 1.04D-09 XBig12= 7.27D-07 6.81D-05.
     90 vectors produced by pass  6 Test12= 1.67D-13 1.04D-09 XBig12= 5.41D-09 6.55D-06.
     82 vectors produced by pass  7 Test12= 1.67D-13 1.04D-09 XBig12= 4.71D-11 5.27D-07.
     23 vectors produced by pass  8 Test12= 1.67D-13 1.04D-09 XBig12= 2.93D-13 3.39D-08.
      1 vectors produced by pass  9 Test12= 1.67D-13 1.04D-09 XBig12= 1.84D-15 2.46D-09.
 InvSVY:  IOpt=1 It=  1 EMax= 3.77D-15
 Solved reduced A of dimension   736 with    96 vectors.
 FullF1:  Do perturbations      1 to       3.
 Isotropic polarizability for W=    0.000000      218.29 Bohr**3.
 FullF1:  Do perturbations      1 to       6.
 End of Minotr F.D. properties file   721 does not exist.
 End of Minotr F.D. properties file   722 does not exist.
 End of Minotr F.D. properties file   788 does not exist.
 Leave Link 1002 at Mon Jan 30 12:13:05 2023, MaxMem= 14763950080 cpu:           29412.7 elap:           14781.2
 (Enter /software/commercial/gaussian/g16/AVX2/g16/l601.exe)
 Copying SCF densities to generalized density rwf, IOpCl= 1 IROHF=0.

 **********************************************************************

            Population analysis using the SCF Density.

 **********************************************************************

 Alpha  occ. eigenvalues -- -255.61947-255.61938-255.61890 -30.06446 -30.06414
 Alpha  occ. eigenvalues --  -30.06386 -25.84178 -25.84135 -25.84024 -25.83544
 Alpha  occ. eigenvalues --  -25.83347 -25.83277 -25.83129 -25.83068 -25.82948
 Alpha  occ. eigenvalues --  -19.02758 -18.98013 -18.98000 -18.97996 -18.97994
 Alpha  occ. eigenvalues --  -18.97978 -18.97975 -18.97953 -18.97926 -18.97916
 Alpha  occ. eigenvalues --  -18.97913 -18.97876 -18.97861 -18.96226 -10.17791
 Alpha  occ. eigenvalues --  -10.17747 -10.17745 -10.17711 -10.17656 -10.17655
 Alpha  occ. eigenvalues --   -3.63416  -3.63355  -3.63298  -2.38689  -2.38654
 Alpha  occ. eigenvalues --   -2.38539  -2.37498  -2.36953  -2.36874  -2.36547
 Alpha  occ. eigenvalues --   -2.36482  -2.36301  -1.06739  -1.06479  -1.06442
 Alpha  occ. eigenvalues --   -1.06169  -1.06106  -1.06079  -1.04867  -0.98935
 Alpha  occ. eigenvalues --   -0.98862  -0.98579  -0.98459  -0.98436  -0.98365
 Alpha  occ. eigenvalues --   -0.93869  -0.59517  -0.58471  -0.58242  -0.58086
 Alpha  occ. eigenvalues --   -0.57964  -0.57839  -0.54860  -0.49387  -0.49347
 Alpha  occ. eigenvalues --   -0.48539  -0.47875  -0.47782  -0.47549  -0.47435
 Alpha  occ. eigenvalues --   -0.47375  -0.47367  -0.46618  -0.46451  -0.46363
 Alpha  occ. eigenvalues --   -0.44951  -0.43746  -0.43736  -0.42642  -0.42470
 Alpha  occ. eigenvalues --   -0.41833  -0.41614  -0.40490  -0.40398  -0.38989
 Alpha  occ. eigenvalues --   -0.38136  -0.37497  -0.37359  -0.37199  -0.36847
 Alpha  occ. eigenvalues --   -0.36832  -0.36363  -0.36022  -0.35874  -0.35732
 Alpha  occ. eigenvalues --   -0.34495  -0.33868  -0.32813  -0.32733  -0.32154
 Alpha  occ. eigenvalues --   -0.29621  -0.29486  -0.28984  -0.28969  -0.28912
 Alpha  occ. eigenvalues --   -0.28760  -0.28595  -0.28521  -0.27912  -0.27741
 Alpha  occ. eigenvalues --   -0.27721  -0.27551  -0.27405  -0.25392  -0.24282
 Alpha  occ. eigenvalues --   -0.22989  -0.22471  -0.22208  -0.21750
 Alpha virt. eigenvalues --   -0.03902  -0.03239  -0.03189  -0.02881  -0.01909
 Alpha virt. eigenvalues --   -0.01799   0.01525   0.02523   0.02788   0.07139
 Alpha virt. eigenvalues --    0.07582   0.07865   0.08759   0.08870   0.08952
 Alpha virt. eigenvalues --    0.09233   0.09753   0.11008   0.12409   0.12864
 Alpha virt. eigenvalues --    0.14008   0.14559   0.15871   0.16320   0.17080
 Alpha virt. eigenvalues --    0.17500   0.18105   0.18594   0.19187   0.20835
 Alpha virt. eigenvalues --    0.21488   0.21727   0.22881   0.22983   0.23547
 Alpha virt. eigenvalues --    0.24199   0.24664   0.25577   0.26280   0.26710
 Alpha virt. eigenvalues --    0.26921   0.27746   0.28296   0.28328   0.29255
 Alpha virt. eigenvalues --    0.29359   0.29546   0.30568   0.30572   0.31123
 Alpha virt. eigenvalues --    0.31375   0.31746   0.32202   0.33570   0.34160
 Alpha virt. eigenvalues --    0.35188   0.35411   0.36037   0.37295   0.37589
 Alpha virt. eigenvalues --    0.37801   0.38413   0.38875   0.39186   0.39424
 Alpha virt. eigenvalues --    0.40050   0.40325   0.40487   0.41059   0.41130
 Alpha virt. eigenvalues --    0.41467   0.41813   0.41908   0.42669   0.43005
 Alpha virt. eigenvalues --    0.44502   0.44706   0.44804   0.45220   0.45655
 Alpha virt. eigenvalues --    0.46525   0.46717   0.48707   0.49192   0.49523
 Alpha virt. eigenvalues --    0.50646   0.51595   0.52322   0.52912   0.53157
 Alpha virt. eigenvalues --    0.53936   0.54164   0.55117   0.56103   0.56137
 Alpha virt. eigenvalues --    0.56719   0.57187   0.57588   0.59498   0.60031
 Alpha virt. eigenvalues --    0.60243   0.62023   0.62728   0.63476   0.63705
 Alpha virt. eigenvalues --    0.65454   0.65565   0.67301   0.67950   0.67971
 Alpha virt. eigenvalues --    0.68512   0.68621   0.69620   0.70291   0.70318
 Alpha virt. eigenvalues --    0.70354   0.70649   0.71106   0.71837   0.72155
 Alpha virt. eigenvalues --    0.73573   0.73656   0.74779   0.74820   0.75548
 Alpha virt. eigenvalues --    0.75775   0.76167   0.76270   0.76729   0.77317
 Alpha virt. eigenvalues --    0.79515   0.80034   0.80653   0.80751   0.82249
 Alpha virt. eigenvalues --    0.83459   0.83632   0.85695   0.87434   0.87736
 Alpha virt. eigenvalues --    0.88864   0.89095   0.89375   0.90449   0.91007
 Alpha virt. eigenvalues --    0.91428   0.92541   0.93572   0.93753   0.94054
 Alpha virt. eigenvalues --    0.94430   0.94661   0.96853   0.97096   0.97147
 Alpha virt. eigenvalues --    0.99248   1.00095   1.00995   1.02403   1.02778
 Alpha virt. eigenvalues --    1.03630   1.04369   1.04791   1.04994   1.05477
 Alpha virt. eigenvalues --    1.05643   1.06262   1.06706   1.08960   1.09312
 Alpha virt. eigenvalues --    1.09554   1.10080   1.10607   1.12063   1.15934
 Alpha virt. eigenvalues --    1.19105   1.20371   1.22477   1.23074   1.23243
 Alpha virt. eigenvalues --    1.24656   1.24774   1.25199   1.25705   1.27066
 Alpha virt. eigenvalues --    1.27455   1.27952   1.32586   1.33886   1.33973
 Alpha virt. eigenvalues --    1.37474   1.37630   1.39061   1.40476   1.41266
 Alpha virt. eigenvalues --    1.42204   1.42969   1.43071   1.45288   1.46009
 Alpha virt. eigenvalues --    1.46049   1.47252   1.47660   1.48048   1.50310
 Alpha virt. eigenvalues --    1.50482   1.51512   1.52047   1.52173   1.53890
 Alpha virt. eigenvalues --    1.54288   1.55905   1.56713   1.57624   1.58035
 Alpha virt. eigenvalues --    1.58617   1.59940   1.60477   1.61584   1.62012
 Alpha virt. eigenvalues --    1.62378   1.62708   1.66605   1.67624   1.67948
 Alpha virt. eigenvalues --    1.68873   1.69557   1.69661   1.71412   1.71451
 Alpha virt. eigenvalues --    1.71878   1.72979   1.76828   1.77419   1.78187
 Alpha virt. eigenvalues --    1.79796   1.79954   1.81155   1.84452   1.86115
 Alpha virt. eigenvalues --    1.88181   1.88339   1.89638   1.90093   1.90411
 Alpha virt. eigenvalues --    1.90974   1.92248   1.92832   1.93103   1.93578
 Alpha virt. eigenvalues --    1.93843   1.95534   1.96508   1.98188   1.99174
 Alpha virt. eigenvalues --    1.99406   2.01076   2.01295   2.03403   2.03929
 Alpha virt. eigenvalues --    2.04757   2.04903   2.05112   2.05589   2.06471
 Alpha virt. eigenvalues --    2.06721   2.08068   2.08397   2.08587   2.09388
 Alpha virt. eigenvalues --    2.10147   2.11212   2.12417   2.12973   2.13266
 Alpha virt. eigenvalues --    2.13866   2.14541   2.15222   2.15757   2.17273
 Alpha virt. eigenvalues --    2.17510   2.17819   2.18974   2.19329   2.20158
 Alpha virt. eigenvalues --    2.20643   2.21632   2.22356   2.22576   2.25336
 Alpha virt. eigenvalues --    2.25783   2.26266   2.26775   2.27186   2.28500
 Alpha virt. eigenvalues --    2.28875   2.29465   2.30465   2.31640   2.33980
 Alpha virt. eigenvalues --    2.35760   2.37108   2.37849   2.41826   2.45198
 Alpha virt. eigenvalues --    2.45362   2.46351   2.47215   2.48030   2.52250
 Alpha virt. eigenvalues --    2.54128   2.54984   2.56558   2.57283   2.58188
 Alpha virt. eigenvalues --    2.64300   2.65118   2.65175   2.66289   2.66383
 Alpha virt. eigenvalues --    2.66981   2.67592   2.68334   2.70108   2.70125
 Alpha virt. eigenvalues --    2.71538   2.71757   2.73269   2.74382   2.75055
 Alpha virt. eigenvalues --    2.79430   2.81190   2.82027   2.82172   2.82990
 Alpha virt. eigenvalues --    2.85255   2.87642   2.88576   2.88815   2.90565
 Alpha virt. eigenvalues --    2.91449   2.94400   2.95229   2.97132   2.97312
 Alpha virt. eigenvalues --    2.98100   2.98315   2.99476   2.99944   3.00703
 Alpha virt. eigenvalues --    3.00874   3.02194   3.02560   3.04016   3.04574
 Alpha virt. eigenvalues --    3.05416   3.05905   3.06107   3.07855   3.09033
 Alpha virt. eigenvalues --    3.09860   3.10759   3.11818   3.12278   3.13210
 Alpha virt. eigenvalues --    3.13890   3.13929   3.14613   3.14781   3.15407
 Alpha virt. eigenvalues --    3.15766   3.15787   3.16312   3.16338   3.17109
 Alpha virt. eigenvalues --    3.17201   3.18847   3.19179   3.19903   3.23567
 Alpha virt. eigenvalues --    3.23865   3.24510   3.25531   3.25728   3.27841
 Alpha virt. eigenvalues --    3.28091   3.28683   3.29122   3.30167   3.30277
 Alpha virt. eigenvalues --    3.31307   3.31603   3.35833   3.37398   3.38304
 Alpha virt. eigenvalues --    3.39394   3.42067   3.43292   3.43529   3.43957
 Alpha virt. eigenvalues --    3.44735   3.44810   3.45633   3.45774   3.47378
 Alpha virt. eigenvalues --    3.47945   3.48815   3.49307   3.49917   3.50850
 Alpha virt. eigenvalues --    3.51101   3.52804   3.53297   3.54594   3.56070
 Alpha virt. eigenvalues --    3.56497   3.58186   3.58367   3.59990   3.61188
 Alpha virt. eigenvalues --    3.61847   3.63115   3.63685   3.64154   3.64604
 Alpha virt. eigenvalues --    3.65362   3.66513   3.68802   3.70206   3.72490
 Alpha virt. eigenvalues --    3.73065   3.74305   3.77194   3.79879   3.79893
 Alpha virt. eigenvalues --    3.80247   3.80892   3.81777   3.82915   3.84519
 Alpha virt. eigenvalues --    3.86780   3.86818   3.91785   3.92412   3.93003
 Alpha virt. eigenvalues --    3.93583   3.93710   3.94188   3.94520   3.94717
 Alpha virt. eigenvalues --    3.96104   3.96224   3.96883   3.98031   3.98145
 Alpha virt. eigenvalues --    3.98489   3.98723   4.00448   4.05466   4.05481
 Alpha virt. eigenvalues --    4.05889   4.07542   4.11487   4.12110   4.14209
 Alpha virt. eigenvalues --    4.15680   4.16016   4.16620   4.18730   4.18871
 Alpha virt. eigenvalues --    4.20125   4.20809   4.21294   4.23148   4.23347
 Alpha virt. eigenvalues --    4.23516   4.25567   4.26438   4.30603   4.43804
 Alpha virt. eigenvalues --    4.44391   4.47568   4.47889   4.49785   4.50241
 Alpha virt. eigenvalues --    4.51886   4.54906   4.55443   4.56280   4.58673
 Alpha virt. eigenvalues --    4.65392   5.17201   5.23726   5.23765   5.23912
 Alpha virt. eigenvalues --    5.23962   5.24677   5.25051   5.25262   5.25600
 Alpha virt. eigenvalues --    5.25695   5.25909   5.25993   5.26236   5.26478
 Alpha virt. eigenvalues --    5.26872   5.27174   5.28127   5.28205   5.29658
 Alpha virt. eigenvalues --    5.29797   5.30328   5.31265   5.31740   5.32329
 Alpha virt. eigenvalues --    5.32347   5.32748   5.33108   5.33349   5.34203
 Alpha virt. eigenvalues --    5.36139   5.37526   5.37650   5.39933   5.41644
 Alpha virt. eigenvalues --    5.42331   5.43854   5.43931   5.47269   5.49419
 Alpha virt. eigenvalues --    5.49612   5.52370   5.53231   5.58285   5.58361
 Alpha virt. eigenvalues --    5.58829   5.59058   5.59075   5.60061   5.61838
 Alpha virt. eigenvalues --    5.63062   5.63353   5.64104   5.64313   5.68475
 Alpha virt. eigenvalues --    5.68789   5.69247   5.69593   5.69739   5.69809
 Alpha virt. eigenvalues --    5.69829   5.87692   5.88812   5.89592   5.92955
 Alpha virt. eigenvalues --    5.94473   5.95740   6.05217   6.05456   6.05919
 Alpha virt. eigenvalues --    6.07519   6.08469   6.09867   6.11222   6.16173
 Alpha virt. eigenvalues --    6.16507   6.16670   6.16916   6.17072   6.17122
 Alpha virt. eigenvalues --    6.17427   6.17745   6.19623   6.19785   6.19972
 Alpha virt. eigenvalues --    6.24531   6.35493   6.41294   6.43885   6.44508
 Alpha virt. eigenvalues --    6.45376   6.45963   6.47367   6.47808   6.48433
 Alpha virt. eigenvalues --    6.48914   6.49465   6.49800   6.50775   6.53135
 Alpha virt. eigenvalues --    6.54057   6.54554   6.56364   6.56787   6.57615
 Alpha virt. eigenvalues --    6.58103   6.59520   6.59740   6.60028   6.61905
 Alpha virt. eigenvalues --    6.63499   6.64145   6.65180   6.66342   6.67388
 Alpha virt. eigenvalues --    6.67530   6.68669   6.70248   6.71022   6.73190
 Alpha virt. eigenvalues --    6.75026   6.76156   6.80330   6.85152   6.85272
 Alpha virt. eigenvalues --    6.86302   6.87449   6.87522   6.89940   6.90450
 Alpha virt. eigenvalues --    6.90536   6.90781   6.90929   6.91139   6.91655
 Alpha virt. eigenvalues --    6.93260   6.96417   6.96974   6.97182   6.97798
 Alpha virt. eigenvalues --    6.98293   7.04213   7.04275   7.04900   7.05658
 Alpha virt. eigenvalues --    7.07182   7.07945   7.10347   7.10481   7.12159
 Alpha virt. eigenvalues --    7.14489   7.23147   7.23369   7.24271   7.24500
 Alpha virt. eigenvalues --    7.24648   7.24853   7.26584   7.26752   7.26992
 Alpha virt. eigenvalues --    7.27901   7.28419   7.29561   7.31353   7.32509
 Alpha virt. eigenvalues --    7.32990   7.35931   7.38305   7.41847  23.21435
 Alpha virt. eigenvalues --   23.21752  23.21890  23.22353  23.22626  23.23978
 Alpha virt. eigenvalues --   43.67710  43.77939  43.85572  43.90979  43.91120
 Alpha virt. eigenvalues --   43.96670  43.97940  44.07823  44.11769  44.15888
 Alpha virt. eigenvalues --   44.18046  44.27023  44.29858  44.29891
  Beta  occ. eigenvalues -- -255.61782-255.61762-255.61715 -29.95310 -29.95260
  Beta  occ. eigenvalues --  -29.95140 -25.75729 -25.75682 -25.75448 -25.75269
  Beta  occ. eigenvalues --  -25.75262 -25.75207 -25.75202 -25.75153 -25.75061
  Beta  occ. eigenvalues --  -19.02600 -18.97709 -18.97707 -18.97698 -18.97685
  Beta  occ. eigenvalues --  -18.97680 -18.97678 -18.97628 -18.97625 -18.97625
  Beta  occ. eigenvalues --  -18.97608 -18.97600 -18.97598 -18.94487 -10.17806
  Beta  occ. eigenvalues --  -10.17772 -10.17771 -10.17726 -10.17686 -10.17683
  Beta  occ. eigenvalues --   -3.39398  -3.39354  -3.39049  -2.14484  -2.14428
  Beta  occ. eigenvalues --   -2.13810  -2.13676  -2.13615  -2.13582  -2.13491
  Beta  occ. eigenvalues --   -2.13457  -2.13252  -1.06158  -1.05907  -1.05858
  Beta  occ. eigenvalues --   -1.05590  -1.05517  -1.05488  -1.04528  -0.98223
  Beta  occ. eigenvalues --   -0.98131  -0.97860  -0.97751  -0.97713  -0.97631
  Beta  occ. eigenvalues --   -0.89182  -0.58858  -0.58005  -0.57736  -0.57420
  Beta  occ. eigenvalues --   -0.57298  -0.57153  -0.54571  -0.48276  -0.48213
  Beta  occ. eigenvalues --   -0.47014  -0.46635  -0.46510  -0.46488  -0.46293
  Beta  occ. eigenvalues --   -0.46273  -0.45928  -0.45649  -0.45553  -0.45528
  Beta  occ. eigenvalues --   -0.42782  -0.42182  -0.41849  -0.41754  -0.40928
  Beta  occ. eigenvalues --   -0.40065  -0.39961  -0.36377  -0.35883  -0.34570
  Beta  occ. eigenvalues --   -0.31396  -0.31374  -0.31229  -0.30618  -0.29525
  Beta  occ. eigenvalues --   -0.29251  -0.29136  -0.29114  -0.28959  -0.28625
  Beta  occ. eigenvalues --   -0.28584  -0.27996  -0.27857  -0.27768  -0.27521
  Beta  occ. eigenvalues --   -0.26940  -0.26869  -0.26817  -0.25516  -0.17507
  Beta virt. eigenvalues --   -0.16072  -0.15970  -0.15543  -0.15405  -0.15239
  Beta virt. eigenvalues --   -0.14784  -0.14159  -0.12390  -0.11493  -0.09190
  Beta virt. eigenvalues --   -0.09078  -0.08157  -0.07948  -0.07813  -0.02867
  Beta virt. eigenvalues --   -0.02743  -0.02662  -0.02645  -0.01728  -0.01587
  Beta virt. eigenvalues --    0.01865   0.03202   0.03543   0.07595   0.07718
  Beta virt. eigenvalues --    0.08372   0.08804   0.08966   0.09037   0.09307
  Beta virt. eigenvalues --    0.09861   0.11614   0.12762   0.13816   0.14839
  Beta virt. eigenvalues --    0.16538   0.17106   0.17464   0.17532   0.18700
  Beta virt. eigenvalues --    0.18782   0.19198   0.19438   0.21460   0.21821
  Beta virt. eigenvalues --    0.22568   0.23001   0.23091   0.24262   0.24631
  Beta virt. eigenvalues --    0.24828   0.26335   0.26796   0.26884   0.27808
  Beta virt. eigenvalues --    0.27975   0.28160   0.28589   0.28921   0.29418
  Beta virt. eigenvalues --    0.29985   0.30663   0.31061   0.31464   0.32242
  Beta virt. eigenvalues --    0.32697   0.32983   0.34599   0.34937   0.35276
  Beta virt. eigenvalues --    0.35586   0.36168   0.37607   0.37989   0.38033
  Beta virt. eigenvalues --    0.38702   0.38940   0.40145   0.40317   0.40505
  Beta virt. eigenvalues --    0.40906   0.41060   0.41170   0.41558   0.41689
  Beta virt. eigenvalues --    0.42247   0.42771   0.43115   0.43338   0.44549
  Beta virt. eigenvalues --    0.45103   0.45119   0.45337   0.46186   0.47232
  Beta virt. eigenvalues --    0.48214   0.48997   0.49710   0.49733   0.50944
  Beta virt. eigenvalues --    0.51876   0.53111   0.53148   0.53940   0.54965
  Beta virt. eigenvalues --    0.55126   0.55817   0.56371   0.56627   0.56949
  Beta virt. eigenvalues --    0.57386   0.57854   0.59833   0.59895   0.60273
  Beta virt. eigenvalues --    0.62540   0.63356   0.63988   0.64082   0.65363
  Beta virt. eigenvalues --    0.65849   0.67387   0.67840   0.68308   0.68776
  Beta virt. eigenvalues --    0.69379   0.69889   0.70566   0.70807   0.71140
  Beta virt. eigenvalues --    0.71148   0.71641   0.72113   0.72655   0.74035
  Beta virt. eigenvalues --    0.74177   0.74634   0.75301   0.76029   0.76201
  Beta virt. eigenvalues --    0.76661   0.76739   0.77142   0.78271   0.80285
  Beta virt. eigenvalues --    0.80735   0.82065   0.82104   0.82539   0.83626
  Beta virt. eigenvalues --    0.84125   0.86356   0.88493   0.89633   0.90240
  Beta virt. eigenvalues --    0.90557   0.90842   0.91177   0.91814   0.92222
  Beta virt. eigenvalues --    0.93359   0.94630   0.95421   0.95709   0.95888
  Beta virt. eigenvalues --    0.96188   0.97400   0.97768   0.97995   1.00337
  Beta virt. eigenvalues --    1.01440   1.02455   1.03339   1.04249   1.04799
  Beta virt. eigenvalues --    1.04914   1.05723   1.05760   1.06245   1.06360
  Beta virt. eigenvalues --    1.08627   1.08924   1.10648   1.10708   1.10846
  Beta virt. eigenvalues --    1.12142   1.13163   1.14461   1.17273   1.19748
  Beta virt. eigenvalues --    1.21860   1.23372   1.23780   1.24635   1.25039
  Beta virt. eigenvalues --    1.25092   1.26029   1.26316   1.27560   1.28049
  Beta virt. eigenvalues --    1.29268   1.33432   1.34769   1.34871   1.37932
  Beta virt. eigenvalues --    1.38145   1.40030   1.41047   1.41852   1.43279
  Beta virt. eigenvalues --    1.43568   1.44043   1.46268   1.46915   1.47052
  Beta virt. eigenvalues --    1.48232   1.48290   1.48438   1.50934   1.51303
  Beta virt. eigenvalues --    1.52864   1.52899   1.53089   1.54409   1.55258
  Beta virt. eigenvalues --    1.56748   1.57533   1.58244   1.58775   1.59156
  Beta virt. eigenvalues --    1.60378   1.60938   1.62091   1.62560   1.62579
  Beta virt. eigenvalues --    1.63332   1.66931   1.68114   1.68487   1.69645
  Beta virt. eigenvalues --    1.70014   1.70271   1.71885   1.72071   1.72592
  Beta virt. eigenvalues --    1.73558   1.77063   1.77964   1.78821   1.80252
  Beta virt. eigenvalues --    1.81065   1.82262   1.85073   1.86809   1.88521
  Beta virt. eigenvalues --    1.88533   1.90961   1.91259   1.91671   1.92232
  Beta virt. eigenvalues --    1.93298   1.93582   1.93784   1.94335   1.94402
  Beta virt. eigenvalues --    1.96139   1.97231   1.99257   2.00519   2.00581
  Beta virt. eigenvalues --    2.02034   2.03723   2.04843   2.05002   2.05334
  Beta virt. eigenvalues --    2.05959   2.06047   2.07255   2.07725   2.08478
  Beta virt. eigenvalues --    2.09671   2.09915   2.10433   2.10703   2.11937
  Beta virt. eigenvalues --    2.12311   2.13164   2.14280   2.14859   2.15193
  Beta virt. eigenvalues --    2.15968   2.16517   2.16957   2.18271   2.18879
  Beta virt. eigenvalues --    2.19474   2.20069   2.20168   2.20967   2.21279
  Beta virt. eigenvalues --    2.22538   2.23377   2.23850   2.26391   2.26838
  Beta virt. eigenvalues --    2.27786   2.29836   2.29924   2.30747   2.31234
  Beta virt. eigenvalues --    2.31857   2.34068   2.34231   2.36603   2.37391
  Beta virt. eigenvalues --    2.38060   2.39677   2.42394   2.45817   2.45995
  Beta virt. eigenvalues --    2.47781   2.48653   2.48895   2.52803   2.55948
  Beta virt. eigenvalues --    2.56155   2.57408   2.58729   2.59669   2.65099
  Beta virt. eigenvalues --    2.65793   2.66804   2.66835   2.67587   2.68132
  Beta virt. eigenvalues --    2.68456   2.69414   2.70757   2.71048   2.72438
  Beta virt. eigenvalues --    2.72637   2.74806   2.76097   2.76402   2.80481
  Beta virt. eigenvalues --    2.81810   2.82635   2.83004   2.83911   2.87640
  Beta virt. eigenvalues --    2.90258   2.90809   2.90843   2.92229   2.93283
  Beta virt. eigenvalues --    2.95170   2.98029   2.98260   2.98594   2.98601
  Beta virt. eigenvalues --    2.98901   3.00021   3.00676   3.01437   3.01556
  Beta virt. eigenvalues --    3.02916   3.03417   3.04637   3.06194   3.06718
  Beta virt. eigenvalues --    3.07018   3.07429   3.08910   3.10286   3.11002
  Beta virt. eigenvalues --    3.11420   3.12920   3.13016   3.13545   3.14503
  Beta virt. eigenvalues --    3.14637   3.15039   3.15531   3.15874   3.15997
  Beta virt. eigenvalues --    3.16361   3.16690   3.16792   3.17520   3.17636
  Beta virt. eigenvalues --    3.19759   3.20174   3.21870   3.24370   3.25068
  Beta virt. eigenvalues --    3.25385   3.26275   3.27121   3.28545   3.28975
  Beta virt. eigenvalues --    3.30002   3.30372   3.30915   3.31394   3.32193
  Beta virt. eigenvalues --    3.32523   3.36639   3.38184   3.39896   3.41969
  Beta virt. eigenvalues --    3.43654   3.46410   3.46963   3.47422   3.47490
  Beta virt. eigenvalues --    3.47570   3.48202   3.48821   3.49476   3.49851
  Beta virt. eigenvalues --    3.50030   3.50626   3.51093   3.51834   3.52009
  Beta virt. eigenvalues --    3.54586   3.55077   3.56486   3.59505   3.59910
  Beta virt. eigenvalues --    3.60940   3.64432   3.64463   3.65267   3.66322
  Beta virt. eigenvalues --    3.66850   3.67169   3.69941   3.70134   3.72978
  Beta virt. eigenvalues --    3.73338   3.74816   3.75887   3.76642   3.80312
  Beta virt. eigenvalues --    3.80685   3.81054   3.82106   3.82237   3.82628
  Beta virt. eigenvalues --    3.83391   3.84099   3.85211   3.86608   3.90035
  Beta virt. eigenvalues --    3.92634   3.96873   3.99412   4.00753   4.01454
  Beta virt. eigenvalues --    4.03816   4.08429   4.09147   4.11093   4.11327
  Beta virt. eigenvalues --    4.11512   4.11710   4.11995   4.12125   4.12598
  Beta virt. eigenvalues --    4.12713   4.13764   4.16122   4.16223   4.17982
  Beta virt. eigenvalues --    4.19167   4.19362   4.19626   4.20088   4.21496
  Beta virt. eigenvalues --    4.22757   4.28500   4.29514   4.30318   4.30377
  Beta virt. eigenvalues --    4.31277   4.32070   4.32376   4.33033   4.34335
  Beta virt. eigenvalues --    4.35023   4.36706   4.38394   4.44692   4.44927
  Beta virt. eigenvalues --    4.48163   4.48481   4.50329   4.50952   4.52517
  Beta virt. eigenvalues --    4.56273   4.56512   4.57923   4.59936   4.66589
  Beta virt. eigenvalues --    5.17771   5.24979   5.24995   5.25051   5.25272
  Beta virt. eigenvalues --    5.26050   5.26146   5.26407   5.26726   5.26765
  Beta virt. eigenvalues --    5.26980   5.27146   5.27569   5.27965   5.28188
  Beta virt. eigenvalues --    5.28314   5.29838   5.30036   5.31397   5.32020
  Beta virt. eigenvalues --    5.32062   5.32551   5.32796   5.33506   5.33637
  Beta virt. eigenvalues --    5.33920   5.37495   5.37838   5.38235   5.39714
  Beta virt. eigenvalues --    5.40737   5.42202   5.42883   5.43195   5.43809
  Beta virt. eigenvalues --    5.44961   5.48035   5.50416   5.50621   5.50721
  Beta virt. eigenvalues --    5.52777   5.53666   5.59009   5.59062   5.59528
  Beta virt. eigenvalues --    5.59761   5.59792   5.60824   5.62898   5.64130
  Beta virt. eigenvalues --    5.64377   5.65068   5.65279   5.69208   5.69793
  Beta virt. eigenvalues --    5.70039   5.70352   5.70463   5.70566   5.70578
  Beta virt. eigenvalues --    5.88407   5.89515   5.90279   5.93712   5.95229
  Beta virt. eigenvalues --    5.96534   6.05787   6.06099   6.06458   6.08176
  Beta virt. eigenvalues --    6.08941   6.10454   6.11875   6.16806   6.17150
  Beta virt. eigenvalues --    6.17174   6.17409   6.17550   6.17677   6.17920
  Beta virt. eigenvalues --    6.18322   6.20270   6.20465   6.20634   6.25200
  Beta virt. eigenvalues --    6.36173   6.42674   6.46097   6.46350   6.47327
  Beta virt. eigenvalues --    6.47762   6.48653   6.49290   6.50040   6.50184
  Beta virt. eigenvalues --    6.51447   6.51563   6.52267   6.54090   6.55254
  Beta virt. eigenvalues --    6.55592   6.57486   6.57920   6.59065   6.59364
  Beta virt. eigenvalues --    6.60725   6.61166   6.61584   6.63049   6.64856
  Beta virt. eigenvalues --    6.65442   6.66535   6.68585   6.68750   6.69947
  Beta virt. eigenvalues --    6.70280   6.71655   6.72395   6.75531   6.77914
  Beta virt. eigenvalues --    6.78991   6.81482   6.86227   6.86564   6.89010
  Beta virt. eigenvalues --    6.89054   6.90535   6.90857   6.91543   6.91788
  Beta virt. eigenvalues --    6.91976   6.91992   6.92177   6.93338   6.97432
  Beta virt. eigenvalues --    6.97812   6.97992   6.98981   6.99151   7.02507
  Beta virt. eigenvalues --    7.05184   7.05508   7.06081   7.06854   7.08507
  Beta virt. eigenvalues --    7.09171   7.11972   7.12397   7.13307   7.15898
  Beta virt. eigenvalues --    7.24155   7.24350   7.25195   7.25230   7.25526
  Beta virt. eigenvalues --    7.25689   7.27418   7.27616   7.27890   7.28931
  Beta virt. eigenvalues --    7.29456   7.30719   7.32420   7.33525   7.33855
  Beta virt. eigenvalues --    7.37279   7.39264   7.42858  23.21431  23.21753
  Beta virt. eigenvalues --   23.21884  23.22352  23.22624  23.23977  43.67708
  Beta virt. eigenvalues --   43.78014  43.85556  43.90968  43.91110  43.96659
  Beta virt. eigenvalues --   43.97933  44.07837  44.11754  44.15874  44.18038
  Beta virt. eigenvalues --   44.26996  44.29838  44.29875
          Condensed to atoms (all electrons):
               1          2          3          4          5          6
     1  O    8.294372  -0.091648   0.379686  -0.061917  -0.000001  -0.001267
     2  O   -0.091648   8.294291   0.380112  -0.061891  -0.000000   0.000000
     3  C    0.379686   0.380112   4.169887   0.416449  -0.000025   0.000640
     4  H   -0.061917  -0.061891   0.416449   0.657663  -0.000000   0.000004
     5  O   -0.000001  -0.000000  -0.000025  -0.000000   8.304182  -0.093207
     6  O   -0.001267   0.000000   0.000640   0.000004  -0.093207   8.298258
     7  C    0.000629  -0.000027   0.000045   0.000001   0.371122   0.376781
     8  H    0.000004  -0.000000   0.000001   0.000000  -0.061760  -0.062217
     9  O   -0.000046  -0.032040  -0.000780  -0.000111  -0.000003  -0.000001
    10  O   -0.032273  -0.000049  -0.000783  -0.000109   0.000561  -0.035296
    11  O   -0.000091  -0.000008  -0.000034  -0.000000  -0.032614   0.000592
    12  C   -0.000746  -0.000056   0.001007   0.000040   0.002673  -0.000170
    13  H   -0.000087  -0.000000   0.000033  -0.000000  -0.000105  -0.000268
    14  O    0.000537  -0.037476  -0.000429  -0.000235  -0.000007  -0.000044
    15  O   -0.037271   0.000533  -0.000394  -0.000235  -0.000061  -0.031600
    16  C   -0.000671  -0.000600   0.000381   0.000283  -0.000033  -0.000827
    17  H   -0.000234  -0.000232   0.000322  -0.000015   0.000000  -0.000105
[...]
 ,0.00068611,-0.00008518,0.00007784,-0.00016929,0.00819875,-0.01373693,
 -0.01127118,-0.00445609,-0.17184940,-0.15755587,0.01409286,0.00474202,
 -0.00840324,0.12759196,0.09841998,-0.14698279,-0.00051896,-0.00059070,
 0.00138200,0.00310781,-0.00167038,-0.00025400,-0.00606010,0.00193991,0
 .00168857,-0.23160620,0.12415680,0.51346641,0.00008408,0.00012375,0.00
 009934,-0.00001102,0.00001423,-0.00025042,-0.00021278,-0.00007988,-0.0
 0002107,0.00001962,-0.00000816,0.00003043,-0.00007444,-0.00008141,-0.0
 0020612,-0.00011406,-0.00023515,-0.00024687,-0.00004316,0.00024249,0.0
 0016081,-0.00004011,-0.00001715,-0.00002445,-0.00003303,-0.00010523,0.
 00053572,-0.00013458,-0.00012078,0.00013014,-0.00037999,-0.00006443,0.
 00011607,0.00008637,0.00003917,-0.00001129,-0.00001125,0.00002476,0.00
 005724,0.00022702,-0.00014673,-0.00015811,0.00009887,0.00016503,-0.000
 22775,-0.00025981,-0.00006448,0.00010430,0.00001403,0.00004448,-0.0000
 0518,0.00112030,-0.00062629,0.00093903,0.01350851,-0.00333718,0.002297
 48,0.00321924,-0.00013060,-0.00121601,-0.01844625,-0.01193720,0.031827
 37,-0.00000931,0.00005039,0.00078849,0.00036595,-0.00001109,0.00014618
 ,-0.00031896,0.00024516,-0.00013765,-0.12958341,0.04426109,0.09463048,
 0.13108152,0.00000959,-0.00006471,0.00002103,0.00020730,-0.00029497,-0
 .00009455,-0.00011676,-0.00001991,-0.00005243,0.00003803,0.00001146,-0
 .00004253,-0.00023902,0.00000399,0.00012391,-0.00001159,-0.00002287,0.
 00001508,0.00001607,-0.00001447,-0.00002313,0.00000935,0.00002421,-0.0
 0001993,0.00002694,0.00015662,-0.00074860,0.00001401,0.00003590,-0.000
 03560,-0.00008793,0.00012123,0.00024273,0.00001114,-0.00014788,0.00005
 955,-0.00003173,0.00002154,-0.00000683,0.00024442,-0.00021785,0.000109
 12,-0.00005137,-0.00009258,0.00007375,0.00003573,-0.00002220,-0.000015
 22,0.00002734,-0.00001859,0.00003446,-0.00218514,0.00228187,0.00186310
 ,0.01228228,-0.02802449,-0.03861941,0.00069783,0.00011962,-0.00211928,
 -0.02748517,0.00231480,0.02095949,0.00004258,-0.00001600,-0.00004972,0
 .00012725,0.00020015,-0.00005038,0.00029142,0.00022332,0.00012433,0.04
 421434,-0.05814792,-0.04405313,-0.02799267,0.08178311,0.00005782,-0.00
 007486,-0.00007173,-0.00000798,-0.00015297,-0.00036470,-0.00019322,0.0
 0006281,0.00011267,0.00002512,-0.00004591,-0.00001501,0.00058601,-0.00
 001750,0.00006698,0.00012377,-0.00004708,0.00002096,-0.00019984,0.0001
 6646,-0.00008691,0.00004230,-0.00001574,0.00006439,-0.00032027,0.00021
 583,-0.00007893,0.00003200,0.00004500,-0.00006705,-0.00006772,-0.00001
 128,-0.00020699,-0.00001297,0.00003297,0.00006094,0.00004641,0.0000159
 6,-0.00000963,0.00051595,-0.00059545,0.00019719,0.00012535,-0.00007279
 ,0.00000768,-0.00034515,0.00007179,-0.00011647,0.00004945,-0.00002752,
 0.00007321,0.00036819,0.00092146,0.00257434,0.01115311,-0.02133427,-0.
 00663583,-0.00025774,-0.00077046,0.00245611,0.02252052,0.00376844,-0.0
 0460845,-0.00032493,0.00018063,0.00003155,-0.00015049,0.00014172,0.000
 05567,0.00049404,-0.00040408,-0.00068565,0.09494625,-0.04415588,-0.189
 77520,-0.12933100,0.06208770,0.19711436,-0.00083741,-0.00073022,-0.000
 37058,-0.00229354,0.00129086,-0.00047210,0.00164666,0.00075912,0.00006
 968,-0.00000150,-0.00012822,0.00003979,0.00055793,-0.00004057,0.000652
 01,0.00067282,0.00043303,0.00075586,-0.00049859,-0.00046061,-0.0005312
 9,0.00008361,0.00000845,0.00001977,-0.09168856,0.00356035,-0.02255022,
 0.00096878,-0.00171354,0.00018272,0.00354212,-0.00098414,-0.00044539,-
 0.00288465,0.00238774,0.00149816,-0.00001802,-0.00005813,-0.00018047,0
 .00008221,0.00001729,0.00004290,0.00048984,0.00017985,0.00007266,-0.00
 039045,0.00040515,-0.00035537,-0.00001961,-0.00009692,0.00000386,0.005
 41868,0.00023000,0.00397105,-0.00182051,-0.00144700,-0.00228656,-0.024
 65645,-0.00212831,-0.01865232,0.00023232,-0.00197314,0.00455028,-0.285
 18466,-0.18260049,-0.11336977,-0.00381278,0.00172729,-0.00020726,0.005
 51339,-0.00319196,0.00199562,0.00310759,0.00358951,-0.00156651,-0.0001
 5010,-0.00001933,0.00014147,0.54391908,-0.00261298,-0.00098882,-0.0008
 7392,-0.00525117,0.00383457,-0.00145153,0.00514583,-0.00045255,-0.0009
 4985,-0.00002291,-0.00021032,0.00029311,0.00081614,-0.00033949,0.00027
 659,0.00035702,0.00115736,0.00068113,0.00047691,-0.00078155,0.00012015
 ,-0.00002448,-0.00015299,0.00004271,-0.02835340,-0.45291843,0.11760576
 ,0.00060120,-0.00219367,0.00012293,0.00491438,-0.00193313,0.00045201,-
 0.00275105,0.00329756,0.00122388,-0.00017298,-0.00006860,-0.00007477,-
 0.00080629,-0.00016996,0.00000130,0.00084216,0.00074197,-0.00015050,-0
 .00044378,0.00035557,-0.00036730,-0.00005665,-0.00005317,-0.00005479,0
 .02811986,-0.03037683,0.03331249,-0.00317131,-0.00225302,-0.00794852,-
 0.02919092,0.00490041,-0.02185458,0.00108437,-0.00401007,0.00576809,-0
 .15342643,-0.24246049,-0.06359135,-0.00217930,-0.00123210,0.00075343,-
 0.00125130,-0.00095339,-0.00103706,0.00357942,0.00801602,0.00054761,0.
 00006524,-0.00017086,-0.00012142,0.13060515,0.78690699,0.00061032,-0.0
 0002326,-0.00035043,0.00110842,-0.00136877,-0.00039620,-0.00099928,0.0
 0036295,0.00081725,0.00004419,-0.00007444,-0.00015007,0.00020764,0.000
 27589,-0.00011269,0.00048788,0.00025599,0.00049843,-0.00040330,-0.0004
 6814,-0.00046841,0.00000568,0.00005570,0.00006279,-0.01007032,0.146763
 08,-0.12948390,0.00047180,-0.00050363,-0.00041007,0.00171137,-0.000192
 60,-0.00091283,-0.00098854,0.00075181,0.00099119,0.00011517,0.00001554
 ,-0.00015705,0.00055831,-0.00007859,-0.00019649,0.00016710,-0.00019816
 ,0.00023197,-0.00015884,0.00024664,-0.00017448,0.00000335,-0.00004333,
 0.00005907,-0.00736984,0.01195090,-0.00642341,0.00004100,-0.00070821,0
 .00112422,-0.01102577,-0.00360578,-0.00483762,0.00092134,0.00035959,0.
 00103471,-0.12538032,-0.08863528,-0.13833035,-0.00247300,0.00117916,0.
 00017671,0.00505378,-0.00137662,0.00059420,0.00062802,-0.00071142,-0.0
 0368807,-0.00017326,0.00011539,0.00004215,0.24013478,-0.10761492,0.439
 19633,0.00010915,0.00013944,0.00021329,0.00014022,-0.00006094,0.000141
 04,-0.00021235,-0.00005220,-0.00007183,0.00000620,0.00004702,0.0000141
 0,-0.00037405,-0.00009921,-0.00004954,-0.00014403,-0.00013011,-0.00014
 720,0.00007695,0.00006051,0.00003102,-0.00003005,0.00002830,-0.0000460
 1,0.01134265,0.00103265,-0.00565063,-0.00005664,-0.00015939,0.00022025
 ,-0.00006788,-0.00009010,0.00025141,-0.00001964,0.00015606,-0.00013810
 ,-0.00004256,-0.00002074,0.00003749,0.00001989,0.00001658,0.00018079,0
 .00005196,0.00012159,-0.00011726,-0.00016642,-0.00008117,0.00006314,0.
 00000789,0.00000186,-0.00003081,0.00115893,-0.00076866,-0.00072373,-0.
 00007634,-0.00005202,-0.00055623,0.00341643,0.00005938,0.00077846,-0.0
 0008490,0.00017641,-0.00084026,-0.02258803,-0.01022131,-0.03024830,0.0
 0032874,-0.00004551,-0.00015962,-0.00041261,0.00027325,0.00021626,-0.0
 0019026,-0.00001058,0.00023074,0.00016244,-0.00007056,-0.00001208,-0.1
 5242704,0.05435973,-0.09340611,0.16044718,-0.00002756,-0.00008306,-0.0
 0004810,0.00030613,-0.00030834,-0.00021386,-0.00003772,-0.00002510,0.0
 0003350,0.00002681,-0.00002073,-0.00005098,-0.00017359,0.00011330,-0.0
 0017219,0.00000280,-0.00001069,-0.00002289,-0.00000799,-0.00007275,-0.
 00005669,-0.00002538,0.00002255,0.00001532,0.01887932,-0.03313713,0.03
 479399,-0.00002251,0.00002485,-0.00002985,-0.00021374,0.00001171,-0.00
 002236,0.00006442,-0.00005074,-0.00000153,0.00001618,0.00001909,0.0000
 0332,0.00021629,-0.00028060,0.00010606,-0.00000655,-0.00008132,-0.0000
 2004,-0.00012338,-0.00002148,0.00006313,0.00004504,0.00000140,0.000034
 53,-0.00229379,0.00236859,-0.00177957,0.00008675,0.00013476,0.00076818
 ,0.00142340,-0.00012092,0.00160147,-0.00004839,0.00001528,-0.00000594,
 -0.02811477,0.00348411,-0.01796555,0.00025768,0.00016049,0.00004923,0.
 00008072,0.00028387,-0.00008740,-0.00001823,-0.00016640,-0.00010219,-0
 .00006491,0.00007252,0.00001162,0.05430008,-0.06341669,0.04489702,-0.0
 4441584,0.09115559,-0.00014138,0.00007231,0.00003941,-0.00045876,0.000
 61109,0.00026571,0.00034613,-0.00008091,-0.00018743,-0.00003313,0.0000
 2115,0.00008117,-0.00003832,0.00008928,-0.00027396,-0.00006277,-0.0000
 1803,-0.00006226,0.00006540,-0.00005403,0.00005455,-0.00005181,-0.0000
 1680,0.00000588,-0.01225042,0.01904278,0.00014701,-0.00013370,-0.00003
 426,0.00009435,-0.00047890,-0.00003059,0.00013689,0.00015678,-0.000080
 25,-0.00016033,-0.00001768,0.00000271,0.00007240,-0.00003313,0.0001690
 9,-0.00035355,-0.00007066,0.00008489,-0.00006494,0.00020407,-0.0000766
 5,0.00008449,-0.00002352,0.00004386,-0.00000972,-0.00036932,-0.0008223
 2,0.00256882,0.00035916,-0.00015285,0.00004240,0.00049767,0.00043300,0
 .00247970,0.00036878,-0.00015036,-0.00003337,-0.02350001,-0.00281052,-
 0.00059036,0.00024809,-0.00012496,-0.00001938,-0.00069471,0.00047586,-
 0.00065849,-0.00017848,0.00003320,0.00005792,-0.00001707,0.00001008,-0
 .00008093,-0.09355710,0.04512315,-0.15905477,0.12989773,-0.06172891,0.
 15553772,0.00020773,0.00006181,0.00019959,0.00017631,0.00004711,-0.000
 14120,-0.00039404,-0.00005644,0.00000023,-0.00002278,0.00000644,0.0000
 0951,-0.00243632,0.00256288,-0.00247533,-0.00039212,0.00149016,0.00006
 823,0.00201648,-0.00148642,0.00029734,-0.00021849,-0.00000618,0.000088
 36,-0.00084988,-0.00442299,0.00094948,-0.00141008,0.00414405,-0.000664
 99,-0.00657021,0.00852407,0.00743270,0.00478715,-0.00329443,-0.0023117
 0,-0.00041337,0.00008693,0.00014757,0.00005411,0.00009101,0.00016360,0
 .00002900,-0.00000831,-0.00021540,-0.00018447,-0.00004779,0.00004521,-
 0.00001678,0.00000349,-0.00000599,0.00019729,0.00200588,-0.00091886,-0
 .00011813,-0.00138689,-0.00002314,-0.00945318,0.00139424,0.00021063,-0
 .00121914,-0.00235635,0.00225334,-0.00698188,-0.00948664,-0.00581796,0
 .00079486,-0.00218620,0.00071884,-0.00260495,0.00035110,0.00027408,0.0
 0152130,0.00144630,-0.00058186,-0.00017279,0.00000984,-0.00008411,0.00
 486268,0.00383108,0.00160139,-0.00036802,-0.00010204,-0.00005664,0.651
 83521,-0.00001219,-0.00062253,-0.00050035,-0.00001759,-0.00061627,-0.0
 0052027,0.00000851,0.00044954,0.00047832,-0.00000975,-0.00013649,-0.00
 015563,0.00203772,-0.00000082,0.00184517,0.00060168,0.00130554,0.00116
 452,0.00027468,-0.00129727,-0.00032149,0.00037157,0.00000247,0.0001736
 7,-0.00112547,-0.00093808,-0.00030461,0.00100478,-0.00045127,-0.000548
 15,0.00900381,-0.00518574,-0.00703783,-0.00101713,0.00007388,0.0009534
 6,0.00051974,-0.00013348,-0.00055677,0.00016615,-0.00049546,0.00046670
 ,-0.00006108,-0.00051187,0.00044676,-0.00005567,0.00036560,-0.00040440
 ,0.00001601,-0.00012844,0.00013930,0.00171872,0.00075047,-0.00092921,-
 0.00053114,0.00120471,0.00134034,0.00085166,-0.02885763,0.00105223,-0.
 00173891,-0.00024036,0.00229121,-0.01051595,-0.00715432,-0.00628600,-0
 .00168013,0.00038999,-0.00051918,-0.00009124,-0.00270923,0.00011702,-0
 .00010901,-0.00129613,-0.00036319,-0.00035469,-0.00002073,0.00021770,0
 .00159548,0.00049615,0.00089871,-0.00063892,-0.00019510,-0.00046615,0.
 01379677,0.07232103,0.00002416,-0.00010031,-0.00000022,-0.00000949,-0.
 00012173,0.00004678,0.00002232,0.00011990,0.00003935,0.00000429,0.0000
 1621,0.00000054,-0.00224777,0.00191641,-0.00100536,-0.00026889,0.00106
 327,0.00084751,0.00104889,-0.00148587,-0.00040606,-0.00012376,0.000068
 58,-0.00003629,-0.00026340,-0.00223890,0.00049491,0.00076628,-0.002988
 70,0.00046737,0.00591867,-0.00503176,-0.00161194,-0.00272939,0.0021453
 7,0.00226838,0.00004052,-0.00005340,-0.00016490,-0.00000064,-0.0000605
 0,0.00012295,0.00006104,-0.00003305,0.00017294,-0.00000414,0.00005367,
 -0.00005757,0.00000332,-0.00000366,-0.00000994,-0.00061970,-0.00018383
 ,-0.00114542,0.00034438,0.00131318,0.00071133,-0.00007493,0.00681136,-
 0.00829282,0.00215874,0.00244908,-0.00178766,-0.00450075,-0.00414456,0
 .00034215,0.00004034,0.00030117,-0.00136245,0.00041758,0.00166300,0.00
 084148,-0.00125586,-0.00179059,-0.00007210,0.00014997,0.00007969,-0.00
 003952,0.00197263,0.00170888,0.00140960,0.00001456,-0.00003564,-0.0001
 4690,-0.01734321,-0.03972880,0.44206367,-0.00017886,-0.00008888,0.0000
 6889,-0.00013333,0.00006689,0.00004149,0.00020473,0.00001172,-0.000023
 16,0.00000091,0.00001082,0.00000322,-0.00022643,-0.00067505,0.00041034
 ,-0.00010016,-0.00058070,-0.00019807,-0.00058299,0.00079425,-0.0001328
 8,-0.00002389,0.00000888,-0.00007095,0.00005989,0.00118572,-0.00024391
 ,0.00097111,-0.00292517,0.00103148,-0.00125164,-0.00187574,-0.00074108
 ,-0.00409094,0.00359330,0.00181602,-0.00001101,0.00000084,-0.00003061,
 -0.00004588,0.00000149,0.00000362,-0.00004846,0.00001006,0.00000589,0.
 00005891,-0.00000118,0.00000548,0.00000202,0.00000479,-0.00000872,0.00
 017646,-0.00039413,0.00019372,0.00004747,0.00029884,0.00001685,0.00422
 008,-0.00572152,0.00064325,0.00016944,0.00052025,-0.00042631,0.0009435
 0,0.00124726,0.00006978,0.00073997,0.00105560,-0.00068921,-0.00026253,
 0.00025812,0.00014246,-0.00024197,-0.00028696,0.00013161,0.00003471,-0
 .00000865,0.00000969,-0.00075627,-0.00136431,-0.00039666,0.00004682,0.
 00000990,0.00001082,-0.27751306,-0.01819180,0.18951060,0.30661139,0.00
 015815,0.00031478,0.00020947,0.00005219,0.00024611,0.00010473,-0.00019
 983,-0.00022613,-0.00017967,-0.00000467,0.00004003,0.00005546,-0.00025
 178,-0.00013833,-0.00088686,-0.00021741,-0.00028178,-0.00074005,0.0004
 5235,0.00039478,0.00058613,-0.00013704,-0.00004797,-0.00002141,0.00013
 602,-0.00035601,0.00017356,-0.00167509,0.00455572,-0.00062606,-0.00356
 990,0.00239867,0.00292986,0.00534579,-0.00414735,-0.00319133,-0.000430
 84,0.00010859,0.00038498,-0.00008084,0.00026110,-0.00016978,-0.0000216
 2,0.00019354,-0.00031653,0.00000641,-0.00017514,0.00017721,-0.00001152
 ,0.00004974,-0.00004486,0.00014612,0.00042468,0.00017945,0.00006581,-0
 .00077798,-0.00039185,-0.00717206,-0.00565722,0.00952105,-0.00048127,-
 0.00101056,0.00054949,0.00009630,-0.00080403,-0.00113048,0.00030278,-0
 .00133029,0.00134735,-0.00078221,-0.00031159,-0.00043540,0.00047714,0.
 00090512,0.00003890,-0.00002849,-0.00003484,-0.00005712,0.00003117,0.0
 0015462,-0.00027574,-0.00002025,-0.00001509,0.00012796,-0.02124561,-0.
 01439136,0.02602440,0.02711679,0.01909795,0.00011817,0.00006459,-0.000
 17505,0.00009920,-0.00010776,-0.00004782,-0.00009890,0.00001890,0.0000
 5578,0.00000715,-0.00001717,-0.00000709,0.00052993,-0.00104849,0.00034
 634,0.00024506,-0.00074396,-0.00038869,-0.00099383,0.00101944,0.000100
 53,0.00002430,0.00000521,-0.00002335,-0.00013854,-0.00008053,0.0001233
 2,-0.00048473,0.00223021,-0.00047127,-0.00031952,0.00059148,-0.0018635
 8,0.00234835,-0.00236719,-0.00177035,0.00006588,-0.00003337,0.00004946
 ,-0.00001445,-0.00002347,-0.00005055,0.00000694,-0.00004171,0.00004052
 ,0.00004626,0.00003700,-0.00002653,0.00000409,0.00000006,0.00000631,-0
 .00032428,-0.00013654,0.00011033,0.00002907,0.00006645,-0.00010093,0.0
 0138626,0.00509309,-0.00007750,0.00025905,0.00016273,-0.00023630,-0.00
 008590,-0.00105336,-0.00092879,-0.00069217,-0.00019556,0.00095601,0.00
 080224,-0.00005790,-0.00033917,-0.00012335,0.00002669,0.00007718,0.000
 03761,0.00000396,-0.00000061,0.00014241,-0.00007133,-0.00001605,-0.000
 04650,-0.00000030,-0.00003137,0.24524587,0.03185825,-0.25465388,-0.223
 46695,-0.03315962,0.24521072,-0.00013901,-0.00011368,-0.00002792,-0.00
 019653,0.00005311,-0.00007834,0.00019718,0.00002482,0.00001175,-0.0000
 0109,-0.00001646,-0.00000912,0.00016991,-0.00039936,0.00030292,0.00005
 555,-0.00022232,-0.00003253,-0.00020328,0.00020978,-0.00006774,0.00002
 326,0.00001282,-0.00000777,0.00043927,0.00275274,-0.00112469,0.0002068
 7,-0.00110072,0.00021356,0.00095648,-0.00119835,-0.00023503,-0.0007382
 6,0.00121920,0.00051649,0.00004306,-0.00000372,-0.00003255,-0.00004623
 ,-0.00003326,0.00003716,-0.00005007,-0.00003087,0.00000530,0.00004574,
 0.00002363,-0.00003156,0.00000293,-0.00000836,0.00001276,0.00103391,-0
 .00083650,0.00051056,-0.00014931,0.00047976,0.00023968,0.00250893,0.00
 681130,-0.00176679,-0.00038162,0.00050241,-0.00022024,-0.00094442,0.00
 234915,0.00075050,0.00021447,0.00033104,-0.00020968,-0.00047106,-0.000
 26156,-0.00007426,-0.00031938,-0.00070530,0.00014596,-0.00002762,-0.00
 000555,0.00007001,-0.00365757,-0.00371922,-0.00102629,-0.00005461,-0.0
 0001914,0.00001290,-0.35514242,0.00418336,-0.17305635,-0.02882000,0.00
 194342,-0.02460872,0.38544493,-0.00007056,0.00021192,0.00010616,-0.000
 16530,0.00029105,0.00021435,0.00020005,-0.00018975,-0.00020273,0.00000
 949,0.00003942,0.00005305,0.00069170,-0.00099369,0.00052051,-0.0000380
 6,-0.00081045,-0.00038703,-0.00058603,0.00088902,0.00012421,0.00002661
 ,-0.00003344,-0.00006039,0.00118221,0.00475911,-0.00097240,-0.00003859
 ,-0.00050719,0.00023317,-0.00004623,-0.00093230,-0.00118446,-0.0002172
 0,0.00031926,-0.00021308,0.00005253,-0.00001901,0.00011538,-0.00006011
 ,0.00018038,-0.00029986,0.00002149,0.00024840,-0.00017416,0.00004525,-
 0.00015579,0.00016331,-0.00000127,0.00005026,-0.00004435,0.00018257,-0
 .00130900,0.00137492,0.00009334,-0.00021554,-0.00071185,0.00926002,-0.
 00443322,0.00780673,0.00004821,-0.00003351,-0.00087574,0.00431282,0.00
 403891,0.00278347,-0.00011727,0.00049091,0.00017061,0.00063118,-0.0004
 4920,-0.00055474,-0.00039385,0.00027499,0.00063534,0.00013074,-0.00003
 945,-0.00003575,-0.00554795,-0.00472509,-0.00224946,0.00046474,0.00013
 802,0.00030716,0.00623313,-0.01197681,0.01226712,-0.00408145,0.0005602
 5,-0.00203981,-0.01222218,0.01433156,-0.00007303,-0.00009158,-0.000010
 29,-0.00011952,0.00005585,-0.00013955,0.00006690,0.00001183,0.00003255
 ,-0.00000741,-0.00001539,-0.00000452,-0.00041834,0.00023571,-0.0003228
 3,-0.00009653,0.00012912,-0.00009868,0.00024590,-0.00002790,0.00008271
 ,-0.00004964,0.00000071,0.00000718,0.00014815,0.00173123,-0.00037455,0
 .00011839,0.00012180,0.00008245,-0.00016584,-0.00089451,-0.00084840,0.
 00001319,-0.00030263,-0.00009353,0.00002768,0.00000727,-0.00003343,0.0
 0000783,-0.00002413,0.00003779,0.00000992,-0.00001290,-0.00006544,-0.0
 0006103,0.00001763,-0.00000757,-0.00000423,0.00000098,0.00000451,0.000
 70132,0.00000440,0.00070895,-0.00019686,-0.00083490,-0.00035990,-0.002
 19580,0.00352536,0.00049272,-0.00027672,-0.00118048,0.00042285,0.00058
 405,0.00085293,-0.00167244,0.00041004,-0.00023333,0.00007122,-0.000855
 90,0.00007554,-0.00015042,0.00093096,0.00119891,-0.00009615,-0.0000244
 3,0.00000742,-0.00003461,-0.00170070,-0.00187138,-0.00107571,-0.000046
 08,-0.00003338,0.00005932,-0.22906559,0.01519868,-0.17903594,0.0323133
 0,-0.00078323,0.01413236,0.19978001,-0.01686965,0.16828936\\0.00001488
 ,0.00000853,-0.00000447,0.00002102,0.00001046,-0.00001888,0.00001621,0
 .00000449,-0.00001140,0.00000594,0.00001539,-0.00001311,-0.00000300,-0
 .00000190,0.00001742,0.00000354,-0.00002212,-0.00000860,-0.00001109,0.
 00000862,0.00002271,-0.00000538,-0.00000701,0.00000822,0.00001467,-0.0
 0002932,-0.00000611,-0.00000986,0.00002047,-0.00000012,0.00000071,0.00
 000612,0.00003169,0.00001363,0.00000423,0.00001244,-0.00000442,0.00000
 058,0.00000004,0.00002695,0.00001276,-0.00000132,-0.00001383,-0.000015
 25,0.00000265,-0.00000513,-0.00000416,-0.00000211,-0.00000211,-0.00000
 650,-0.00000062,-0.00002513,0.00000525,-0.00003719,-0.00000506,0.00000
 342,-0.00000979,-0.00003997,0.00001852,-0.00005502,0.00001036,-0.00001
 449,0.00001710,-0.00000920,0.00001883,0.00001014,0.00001642,0.00002163
 ,-0.00001919,0.00001093,-0.00004205,0.00008357,0.00000342,-0.00000896,
 -0.00000281,-0.00000204,-0.00000369,0.00000039,-0.00000236,0.00000046,
 -0.00000858,-0.00000442,-0.00000992,-0.00000069,0.00000691,0.00000918,
 0.00001990,0.00000520,-0.00000002,-0.00000812,-0.00002781,-0.00000354,
 -0.00001814\\\@
 The archive entry for this job was punched.


 ALMOST ANYTHING IS EASIER TO GET INTO THAN OUT OF.

                         -- AGNES ALLEN'S LAW FROM
                PAUL DICKSON'S "THE OFFICIAL RULES"
 Job cpu time:       0 days 20 hours  0 minutes 27.3 seconds.
 Elapsed time:       0 days 10 hours  2 minutes 43.3 seconds.
 File lengths (MBytes):  RWF=   3895 Int=      0 D2E=      0 Chk=    115 Scr=      1
 Normal termination of Gaussian 16 at Mon Jan 30 14:23:09 2023.
