 Entering Gaussian System, Link 0=g16
 Input=FeFeFe-B-0xH2O-opt.gjf
 Output=FeFeFe-B-0xH2O-opt.log
 AtFile(1): /zfs/curium/svicchi/00-MOF/01-Gaussian/zw-basis-set/def2-TZVP/H.gbs
            !----------------------------------------------------------------------
            ! Basis Set Exchange
            ! Version v0.9
            ! https://www.basissetexchange.org
            !----------------------------------------------------------------------
            !   Basis set: def2-TZVP
            ! Description: def2-TZVP
            !        Role: orbital
            !     Version: 1  (Data from Turbomole 7.3)
            !----------------------------------------------------------------------
            H     0
            S    3   1.00
                 34.0613410              0.60251978D-02
                  5.1235746              0.45021094D-01
                  1.1646626              0.20189726
            S    1   1.00
                  0.32723041             1.0000000
            S    1   1.00
                  0.10307241             1.0000000
            P    1   1.00
                  0.8000000              1.0000000
 AtFile(1): /zfs/curium/svicchi/00-MOF/01-Gaussian/zw-basis-set/def2-TZVP/O.gbs
            !----------------------------------------------------------------------
            ! Basis Set Exchange
            ! Version v0.9
            ! https://www.basissetexchange.org
            !----------------------------------------------------------------------
            !   Basis set: def2-TZVP
            ! Description: def2-TZVP
            !        Role: orbital
            !     Version: 1  (Data from Turbomole 7.3)
            !----------------------------------------------------------------------
            O     0
            S    6   1.00
              27032.3826310              0.21726302465D-03
               4052.3871392              0.16838662199D-02
                922.32722710             0.87395616265D-02
                261.24070989             0.35239968808D-01
                 85.354641351            0.11153519115
                 31.035035245            0.25588953961
            S    2   1.00
                 12.260860728            0.39768730901
                  4.9987076005           0.24627849430
            S    1   1.00
                  1.1703108158           1.0000000
            S    1   1.00
                  0.46474740994          1.0000000
            S    1   1.00
                  0.18504536357          1.0000000
            P    4   1.00
                 63.274954801            0.60685103418D-02
                 14.627049379            0.41912575824D-01
                  4.4501223456           0.16153841088
                  1.5275799647           0.35706951311
            P    1   1.00
                  0.52935117943           .44794207502
            P    1   1.00
                  0.17478421270           .24446069663
            D    1   1.00
                  2.31400000             1.0000000
            D    1   1.00
                  0.64500000             1.0000000
            F    1   1.00
                  1.42800000             1.0000000
 AtFile(1): /zfs/curium/svicchi/00-MOF/01-Gaussian/zw-basis-set/def2-TZVP/C.gbs
            !----------------------------------------------------------------------
            ! Basis Set Exchange
            ! Version v0.9
            ! https://www.basissetexchange.org
            !----------------------------------------------------------------------
            !   Basis set: def2-TZVP
            ! Description: def2-TZVP
            !        Role: orbital
            !     Version: 1  (Data from Turbomole 7.3)
            !----------------------------------------------------------------------
            C     0
            S    6   1.00
              13575.3496820              0.22245814352D-03
               2035.2333680              0.17232738252D-02
                463.22562359             0.89255715314D-02
                131.20019598             0.35727984502D-01
                 42.853015891            0.11076259931
                 15.584185766            0.24295627626
            S    2   1.00
                  6.2067138508           0.41440263448
                  2.5764896527           0.23744968655
            S    1   1.00
                  0.57696339419          1.0000000
            S    1   1.00
                  0.22972831358          1.0000000
            S    1   1.00
                  0.95164440028D-01      1.0000000
            P    4   1.00
                 34.697232244            0.53333657805D-02
                  7.9582622826           0.35864109092D-01
                  2.3780826883           0.14215873329
                  0.81433208183          0.34270471845
            P    1   1.00
                  0.28887547253           .46445822433
            P    1   1.00
                  0.10056823671           .24955789874
            D    1   1.00
                  1.09700000             1.0000000
            D    1   1.00
                  0.31800000             1.0000000
            F    1   1.00
                  0.76100000             1.0000000
 AtFile(1): /zfs/curium/svicchi/00-MOF/01-Gaussian/zw-basis-set/def2-TZVP/Fe.gbs
            !----------------------------------------------------------------------
            ! Basis Set Exchange
            ! Version v0.9
            ! https://www.basissetexchange.org
            !----------------------------------------------------------------------
            !   Basis set: def2-TZVP
            ! Description: def2-TZVP
            !        Role: orbital
            !     Version: 1  (Data from Turbomole 7.3)
            !----------------------------------------------------------------------
            Fe     0
            S    8   1.00
             300784.8463700              0.22806273096D-03
              45088.9705570              0.17681788761D-02
              10262.5163170              0.91927083490D-02
               2905.2897293              0.37355495807D-01
                946.11487137             0.12151108426
                339.87832894             0.28818881468
                131.94425588             0.41126612677
                 52.111494077            0.21518583573
            S    4   1.00
                329.48839267            -0.24745216477D-01
                101.92332739            -0.11683089050
                 16.240462745            0.55293621136
                  6.8840675801           0.53601640182
            S    2   1.00
                 10.470693782           -0.22912708577
                  1.7360039648           0.71159319984
            S    1   1.00
                  0.72577288979          1.0000000
            S    1   1.00
                  0.11595528203          1.0000000
            S    1   1.00
                  0.41968227746D-01      1.0000000
            P    6   1.00
               1585.3959970              0.23793960179D-02
                375.38006499             0.19253154755D-01
                120.31816501             0.90021836536D-01
                 44.788749031            0.25798172356
                 17.829278584            0.41492649744
                  7.2247153786           0.24207474784
            P    3   1.00
                 28.143219756           -0.29041755152D-01
                  3.8743241412           0.55312260343
                  1.5410752281           0.96771136842
            P    1   1.00
                  0.58285615250          1.0000000
            P    1   1.00
                  0.1349150              1.0000000
            D    4   1.00
                 61.996675034            0.11971972255D-01
                 17.873732552            0.73210135410D-01
                  6.2744782934           0.23103094314
                  2.3552337175           0.39910706494
            D    1   1.00
                  0.85432239901           .41391589765
            D    1   1.00
                  0.27869254413           .21909269782
            D    1   1.00
                  0.0910000              1.0000000
            F    1   1.00
                  1.5980000              1.0000000
 AtFile(1): /zfs/curium/svicchi/00-MOF/01-Gaussian/zw-basis-set/def2-TZVP/N.gbs
            !----------------------------------------------------------------------
            ! Basis Set Exchange
            ! Version v0.9
            ! https://www.basissetexchange.org
            !----------------------------------------------------------------------
            !   Basis set: def2-TZVP
            ! Description: def2-TZVP
            !        Role: orbital
            !     Version: 1  (Data from Turbomole 7.3)
            !----------------------------------------------------------------------
            N     0
            S    6   1.00
              19730.8006470              0.21887984991D-03
               2957.8958745              0.16960708803D-02
                673.22133595             0.87954603538D-02
                190.68249494             0.35359382605D-01
                 62.295441898            0.11095789217
                 22.654161182            0.24982972552
            S    2   1.00
                  8.9791477428           0.40623896148
                  3.6863002370           0.24338217176
            S    1   1.00
                  0.84660076805          1.0000000
            S    1   1.00
                  0.33647133771          1.0000000
            S    1   1.00
                  0.13647653675          1.0000000
            P    4   1.00
                 49.200380510            0.55552416751D-02
                 11.346790537            0.38052379723D-01
                  3.4273972411           0.14953671029
                  1.1785525134           0.34949305230
            P    1   1.00
                  0.41642204972           .45843153697
            P    1   1.00
                  0.14260826011           .24428771672
            D    1   1.00
                  1.65400000             1.0000000
            D    1   1.00
                  0.46900000             1.0000000
            F    1   1.00
                  1.09300000             1.0000000
 Initial command:
 /software/commercial/gaussian/g16/AVX2/g16/l1.exe "/scratch1/svicchi/G09-55812.pbs02/Gau-3320395.inp" -scrdir="/scratch1/svicchi/G09-55812.pbs02/"
 Entering Link 1 = /software/commercial/gaussian/g16/AVX2/g16/l1.exe PID=   3320396.
  
 Copyright (c) 1988-2021, Gaussian, Inc.  All Rights Reserved.
  
 This is part of the Gaussian(R) 16 program.  It is based on
 the Gaussian(R) 09 system (copyright 2009, Gaussian, Inc.),
 the Gaussian(R) 03 system (copyright 2003, Gaussian, Inc.),
 the Gaussian(R) 98 system (copyright 1998, Gaussian, Inc.),
 the Gaussian(R) 94 system (copyright 1995, Gaussian, Inc.),
 the Gaussian 92(TM) system (copyright 1992, Gaussian, Inc.),
 the Gaussian 90(TM) system (copyright 1990, Gaussian, Inc.),
 the Gaussian 88(TM) system (copyright 1988, Gaussian, Inc.),
 the Gaussian 86(TM) system (copyright 1986, Carnegie Mellon
 University), and the Gaussian 82(TM) system (copyright 1983,
 Carnegie Mellon University). Gaussian is a federally registered
 trademark of Gaussian, Inc.
  
 This software contains proprietary and confidential information,
 including trade secrets, belonging to Gaussian, Inc.
  
 This software is provided under written license and may be
 used, copied, transmitted, or stored only in accord with that
 written license.
  
 The following legend is applicable only to US Government
 contracts under FAR:
  
                    RESTRICTED RIGHTS LEGEND
  
 Use, reproduction and disclosure by the US Government is
 subject to restrictions as set forth in subparagraphs (a)
 and (c) of the Commercial Computer Software - Restricted
 Rights clause in FAR 52.227-19.
  
 Gaussian, Inc.
 340 Quinnipiac St., Bldg. 40, Wallingford CT 06492
  
  
 ---------------------------------------------------------------
 Warning -- This program may not be used in any manner that
 competes with the business of Gaussian, Inc. or will provide
 assistance to any competitor of Gaussian, Inc.  The licensee
 of this program is prohibited from giving any competitor of
 Gaussian, Inc. access to this program.  By using this program,
 the user acknowledges that Gaussian, Inc. is engaged in the
 business of creating and licensing software in the field of
 computational chemistry and represents and warrants to the
 licensee that it is not a competitor of Gaussian, Inc. and that
 it will not use this program in any manner prohibited above.
 ---------------------------------------------------------------
  

 Cite this work as:
 Gaussian 16, Revision C.02,
 M. J. Frisch, G. W. Trucks, H. B. Schlegel, G. E. Scuseria, 
 M. A. Robb, J. R. Cheeseman, G. Scalmani, V. Barone, 
 G. A. Petersson, H. Nakatsuji, X. Li, M. Caricato, A. V. Marenich, 
 J. Bloino, B. G. Janesko, R. Gomperts, B. Mennucci, H. P. Hratchian, 
 J. V. Ortiz, A. F. Izmaylov, J. L. Sonnenberg, D. Williams-Young, 
 F. Ding, F. Lipparini, F. Egidi, J. Goings, B. Peng, A. Petrone, 
 T. Henderson, D. Ranasinghe, V. G. Zakrzewski, J. Gao, N. Rega, 
 G. Zheng, W. Liang, M. Hada, M. Ehara, K. Toyota, R. Fukuda, 
 J. Hasegawa, M. Ishida, T. Nakajima, Y. Honda, O. Kitao, H. Nakai, 
 T. Vreven, K. Throssell, J. A. Montgomery, Jr., J. E. Peralta, 
 F. Ogliaro, M. J. Bearpark, J. J. Heyd, E. N. Brothers, K. N. Kudin, 
 V. N. Staroverov, T. A. Keith, R. Kobayashi, J. Normand, 
 K. Raghavachari, A. P. Rendell, J. C. Burant, S. S. Iyengar, 
 J. Tomasi, M. Cossi, J. M. Millam, M. Klene, C. Adamo, R. Cammi, 
 J. W. Ochterski, R. L. Martin, K. Morokuma, O. Farkas, 
 J. B. Foresman, and D. J. Fox, Gaussian, Inc., Wallingford CT, 2019.
 
 ******************************************
 Gaussian 16:  ES64L-G16RevC.02  7-Dec-2021
                21-Jan-2023 
 ******************************************
 %NProcShared=2
 Will use up to    2 processors via shared memory.
 %mem=110gb
 %chk=/scratch1/svicchi/G09-55812.pbs02/00-opt/FeFeFe-B-0xH2O-opt.chk
 ----------------------------------------------------------------------
 #p opt=(cartesian,maxcycle=500) gen um06l int=grid=ultrafine scf=(xqc,
 intrep,maxconventionalcycle=150) pop=(hirshfeld) nosymm
 ----------------------------------------------------------------------
 1/6=500,10=7,18=10,26=4,38=1/1,3;
 2/12=2,15=1,17=6,18=5,29=2,40=1/2;
 3/5=7,11=2,25=1,30=1,71=1,74=-53,75=-5,116=2/1,2,3;
 4//1;
 5/5=2,8=3,13=1,17=20,38=5,85=150/2,8;
 6/7=2,8=2,9=2,10=2,28=1,79=1/1;
 7/7=1,29=1,30=1/1,2,3,16;
 1/6=500,10=7,18=10,26=4/3(2);
 2/15=1,29=1/2;
 99/12=1/99;
 2/15=1,29=1/2;
 3/5=7,6=1,11=2,25=1,30=1,71=1,74=-53,75=-5,82=7,116=2/1,2,3;
 4/5=5,16=3,69=1/1;
 5/5=2,8=3,13=1,17=20,38=5,85=150/2,8;
 7/7=1,30=1/1,2,3,16;
 1/6=500,18=10,26=4/3(-5);
 2/15=1,29=1/2;
 6/7=2,8=2,9=2,10=2,19=2,28=1,79=1/1;
 99/9=1,12=1/99;
 Leave Link    1 at Sat Jan 21 14:02:50 2023, MaxMem= 14763950080 cpu:               0.0 elap:               0.1
 (Enter /software/commercial/gaussian/g16/AVX2/g16/l101.exe)
 --------
 FeFeFe-B
 --------
 Symbolic Z-matrix:
 Charge =  0 Multiplicity =15
 O                     1.70958  -2.13728  -1.64403 
 O                    -0.47593  -2.51105  -1.20123 
 C                     0.58189  -2.70334  -1.81264 
 H                     0.57132  -3.46197  -2.61359 
 O                     1.94337   2.04198   1.155 
 O                     3.11017   0.11701   1.13568 
 C                     2.8881    1.30003   1.49983 
 H                     3.61487   1.72687   2.20979 
 O                    -2.12721  -0.1009   -1.44426 
 O                     2.68564   0.51391  -1.56581 
 O                     1.39996   2.36134  -1.53601 
 C                     2.34095   1.64653  -1.96612 
 H                     2.92579   2.0737   -2.79667 
 O                    -0.5322   -2.10351   1.7163 
 O                     1.6528   -2.25702   1.16257 
 C                     0.6411   -2.48278   1.88152 
 H                     0.82544  -3.10531   2.77333 
 Fe                   -1.3914   -1.13669   0.14496 
 O                    -2.08916   0.37119   1.4814 
 Fe                    0.24626   1.81273   0.01435 
 O                    -0.8415    2.25399   1.58088 
 O                    -1.34154   1.99883  -1.1686 
 Fe                    1.95338  -0.83866  -0.20046 
 O                     0.27845  -0.04884  -0.01298 
 C                    -1.7757    1.47278   1.94944 
 H                    -2.371     1.84746   2.79952 
 C                    -2.03942   1.10814  -1.72586 
 H                    -2.65637   1.45234  -2.57263 
 N                    -5.48957   0.06748   0.51982 
 N                    -4.86362   0.79119  -0.01252 
 O                    -2.7472   -2.00795   0.27369 
 
 ITRead=  0  0  0  0  0  0  0  0  0  0  0  0  0  0  0  0  0  0  0  0
 ITRead=  0  0  0  0  0  0  0  0  0  0  0
 MicOpt= -1 -1 -1 -1 -1 -1 -1 -1 -1 -1 -1 -1 -1 -1 -1 -1 -1 -1 -1 -1
 MicOpt= -1 -1 -1 -1 -1 -1 -1 -1 -1 -1 -1
 NAtoms=     31 NQM=       31 NQMF=       0 NMMI=      0 NMMIF=      0
                NMic=       0 NMicF=      0.
                    Isotopes and Nuclear Properties:
 (Nuclear quadrupole moments (NQMom) in fm**2, nuclear magnetic moments (NMagM)
  in nuclear magnetons)

  Atom         1           2           3           4           5           6           7           8           9          10
 IAtWgt=          16          16          12           1          16          16          12           1          16          16
 AtmWgt=  15.9949146  15.9949146  12.0000000   1.0078250  15.9949146  15.9949146  12.0000000   1.0078250  15.9949146  15.9949146
 NucSpn=           0           0           0           1           0           0           0           1           0           0
 AtZEff=  -0.0000000  -0.0000000  -0.0000000  -0.0000000  -0.0000000  -0.0000000  -0.0000000  -0.0000000  -0.0000000  -0.0000000
 NQMom=    0.0000000   0.0000000   0.0000000   0.0000000   0.0000000   0.0000000   0.0000000   0.0000000   0.0000000   0.0000000
 NMagM=    0.0000000   0.0000000   0.0000000   2.7928460   0.0000000   0.0000000   0.0000000   2.7928460   0.0000000   0.0000000
 AtZNuc=   8.0000000   8.0000000   6.0000000   1.0000000   8.0000000   8.0000000   6.0000000   1.0000000   8.0000000   8.0000000

  Atom        11          12          13          14          15          16          17          18          19          20
 IAtWgt=          16          12           1          16          16          12           1          56          16          56
 AtmWgt=  15.9949146  12.0000000   1.0078250  15.9949146  15.9949146  12.0000000   1.0078250  55.9349393  15.9949146  55.9349393
 NucSpn=           0           0           1           0           0           0           1           0           0           0
 AtZEff=  -0.0000000  -0.0000000  -0.0000000  -0.0000000  -0.0000000  -0.0000000  -0.0000000  -0.0000000  -0.0000000  -0.0000000
 NQMom=    0.0000000   0.0000000   0.0000000   0.0000000   0.0000000   0.0000000   0.0000000   0.0000000   0.0000000   0.0000000
 NMagM=    0.0000000   0.0000000   2.7928460   0.0000000   0.0000000   0.0000000   2.7928460   0.0000000   0.0000000   0.0000000
 AtZNuc=   8.0000000   6.0000000   1.0000000   8.0000000   8.0000000   6.0000000   1.0000000  26.0000000   8.0000000  26.0000000

  Atom        21          22          23          24          25          26          27          28          29          30
 IAtWgt=          16          16          56          16          12           1          12           1          14          14
 AtmWgt=  15.9949146  15.9949146  55.9349393  15.9949146  12.0000000   1.0078250  12.0000000   1.0078250  14.0030740  14.0030740
 NucSpn=           0           0           0           0           0           1           0           1           2           2
 AtZEff=  -0.0000000  -0.0000000  -0.0000000  -0.0000000  -0.0000000  -0.0000000  -0.0000000  -0.0000000  -0.0000000  -0.0000000
 NQMom=    0.0000000   0.0000000   0.0000000   0.0000000   0.0000000   0.0000000   0.0000000   0.0000000   2.0440000   2.0440000
 NMagM=    0.0000000   0.0000000   0.0000000   0.0000000   0.0000000   2.7928460   0.0000000   2.7928460   0.4037610   0.4037610
 AtZNuc=   8.0000000   8.0000000  26.0000000   8.0000000   6.0000000   1.0000000   6.0000000   1.0000000   7.0000000   7.0000000

  Atom        31
 IAtWgt=          16
 AtmWgt=  15.9949146
 NucSpn=           0
 AtZEff=  -0.0000000
 NQMom=    0.0000000
 NMagM=    0.0000000
 AtZNuc=   8.0000000
 Leave Link  101 at Sat Jan 21 14:02:51 2023, MaxMem= 14763950080 cpu:               0.1 elap:               0.1
 (Enter /software/commercial/gaussian/g16/AVX2/g16/l103.exe)

 GradGradGradGradGradGradGradGradGradGradGradGradGradGradGradGradGradGrad
 Berny optimization.
 Initialization pass.
 No Z-matrix variables, so optimization will use Cartesian coordinates.
 Trust Radius=3.00D-01 FncErr=1.00D-07 GrdErr=1.00D-06 EigMax=2.50D+02 EigMin=1.00D-04
 Number of steps in this run=    186 maximum allowed number of steps=    186.
 GradGradGradGradGradGradGradGradGradGradGradGradGradGradGradGradGradGrad

 Leave Link  103 at Sat Jan 21 14:02:51 2023, MaxMem= 14763950080 cpu:               0.1 elap:               0.1
 (Enter /software/commercial/gaussian/g16/AVX2/g16/l202.exe)
 ---------------------------------------------------------------------------------------------------
                            Z-MATRIX (ANGSTROMS AND DEGREES)
   CD    Cent   Atom    N1       Length/X        N2       Alpha/Y        N3        Beta/Z          J
 ---------------------------------------------------------------------------------------------------
      1      1  O        0   1.709581         -2.137279         -1.644026
      2      2  O        0  -0.475927         -2.511053         -1.201233
      3      3  C        0   0.581889         -2.703338         -1.812640
      4      4  H        0   0.571321         -3.461973         -2.613586
      5      5  O        0   1.943371          2.041976          1.154996
      6      6  O        0   3.110168          0.117012          1.135678
      7      7  C        0   2.888103          1.300034          1.499832
      8      8  H        0   3.614869          1.726866          2.209793
      9      9  O        0  -2.127210         -0.100899         -1.444256
     10     10  O        0   2.685637          0.513909         -1.565811
     11     11  O        0   1.399962          2.361342         -1.536009
     12     12  C        0   2.340951          1.646529         -1.966119
     13     13  H        0   2.925792          2.073699         -2.796672
     14     14  O        0  -0.532201         -2.103514          1.716296
     15     15  O        0   1.652796         -2.257020          1.162570
     16     16  C        0   0.641103         -2.482783          1.881518
     17     17  H        0   0.825440         -3.105314          2.773332
     18     18  Fe       0  -1.391400         -1.136691          0.144962
     19     19  O        0  -2.089158          0.371192          1.481402
     20     20  Fe       0   0.246259          1.812726          0.014347
     21     21  O        0  -0.841496          2.253991          1.580877
     22     22  O        0  -1.341539          1.998827         -1.168600
     23     23  Fe       0   1.953378         -0.838664         -0.200460
     24     24  O        0   0.278453         -0.048844         -0.012977
     25     25  C        0  -1.775700          1.472784          1.949444
     26     26  H        0  -2.371001          1.847456          2.799515
     27     27  C        0  -2.039421          1.108142         -1.725864
     28     28  H        0  -2.656375          1.452339         -2.572635
     29     29  N        0  -5.489571          0.067478          0.519819
     30     30  N        0  -4.863616          0.791188         -0.012517
     31     31  O        0  -2.747199         -2.007952          0.273694
 ---------------------------------------------------------------------------------------------------
                         Z-Matrix orientation:                         
 ---------------------------------------------------------------------
 Center     Atomic      Atomic             Coordinates (Angstroms)
 Number     Number       Type             X           Y           Z
 ---------------------------------------------------------------------
      1          8           0        1.709581   -2.137279   -1.644026
      2          8           0       -0.475927   -2.511053   -1.201233
      3          6           0        0.581889   -2.703338   -1.812640
      4          1           0        0.571321   -3.461973   -2.613586
      5          8           0        1.943371    2.041976    1.154996
      6          8           0        3.110168    0.117012    1.135678
      7          6           0        2.888103    1.300034    1.499832
      8          1           0        3.614869    1.726866    2.209793
      9          8           0       -2.127210   -0.100899   -1.444256
     10          8           0        2.685637    0.513909   -1.565811
     11          8           0        1.399962    2.361342   -1.536009
     12          6           0        2.340951    1.646529   -1.966119
     13          1           0        2.925792    2.073699   -2.796672
     14          8           0       -0.532201   -2.103514    1.716296
     15          8           0        1.652796   -2.257020    1.162570
     16          6           0        0.641103   -2.482783    1.881518
     17          1           0        0.825440   -3.105314    2.773332
     18         26           0       -1.391400   -1.136691    0.144962
     19          8           0       -2.089158    0.371192    1.481402
     20         26           0        0.246259    1.812726    0.014347
     21          8           0       -0.841496    2.253991    1.580877
     22          8           0       -1.341539    1.998827   -1.168600
     23         26           0        1.953378   -0.838664   -0.200460
     24          8           0        0.278453   -0.048844   -0.012977
     25          6           0       -1.775700    1.472784    1.949444
     26          1           0       -2.371001    1.847456    2.799515
     27          6           0       -2.039421    1.108142   -1.725864
     28          1           0       -2.656375    1.452339   -2.572635
     29          7           0       -5.489571    0.067478    0.519819
     30          7           0       -4.863616    0.791188   -0.012517
     31          8           0       -2.747199   -2.007952    0.273694
 ---------------------------------------------------------------------
                    Distance matrix (angstroms):
                    1          2          3          4          5
     1  O    0.000000
     2  O    2.261022   0.000000
     3  C    1.273006   1.236838   0.000000
     4  H    1.997623   1.998929   1.103247   0.000000
     5  O    5.035410   5.668765   5.760078   6.810154   0.000000
     6  O    3.843205   5.022744   4.799911   5.771643   2.251061
     7  C    4.804985   5.756461   5.684900   6.705550   1.249763
     8  H    5.780455   6.806590   6.708624   7.710527   2.001449
     9  O    4.348301   2.931661   3.774601   4.466119   5.283716
    10  O    2.826234   4.390763   3.851929   4.623397   3.207607
    11  O    4.510557   5.231756   5.137777   5.979868   2.763838
    12  C    3.849620   5.079896   4.694592   5.444961   3.171090
    13  H    4.532119   5.927653   5.411311   6.018366   4.072081
    14  O    4.039615   2.946393   3.748917   4.670230   4.860926
    15  O    2.809723   3.191169   3.193418   4.108632   4.308812
    16  C    3.700064   3.279010   3.701210   4.601048   4.764155
    17  H    4.607803   4.224201   4.609994   5.404690   5.510297
    18  Fe   3.717222   2.130540   3.190683   4.107164   4.716439
    19  O    5.521879   4.255160   5.238124   6.208078   4.377139
    20  Fe   4.527036   4.549093   4.883171   5.902046   2.057626
    21  O    6.015916   5.529866   6.173904   7.229234   2.825210
    22  O    5.161661   4.592316   5.121008   5.963838   4.023878
    23  Fe   1.956968   3.114475   2.820836   3.822959   3.183622
    24  O    3.011645   2.836109   3.221366   4.300975   2.916787
    25  C    6.171934   5.242818   6.095203   7.119100   3.845337
    26  H    7.230099   6.212399   7.120482   8.133202   4.621265
    27  C    4.959282   3.977225   4.626680   5.337600   5.003403
    28  H    5.727936   4.726899   5.322931   5.879640   5.949837
    29  N    7.833963   5.894698   7.069683   7.681775   7.716912
    30  N    7.378663   5.618688   6.716076   7.375193   7.018734
    31  O    4.853583   2.754487   3.989885   4.632833   6.259398
                    6          7          8          9         10
     6  O    0.000000
     7  C    1.257562   0.000000
     8  H    2.000019   1.102007   0.000000
     9  O    5.842403   5.981942   7.047288   0.000000
    10  O    2.763295   3.171302   4.073073   4.853480   0.000000
    11  O    3.885838   3.543624   4.397660   4.302557   2.250968
    12  C    3.542918   3.525940   4.366642   4.826004   1.249754
    13  H    4.396134   4.365767   5.065551   5.664869   2.001409
    14  O    4.305195   4.830060   5.666881   4.067383   5.289387
    15  O    2.785800   3.780524   4.562647   5.072755   4.023539
    16  C    3.662170   4.416378   5.164512   4.939402   5.004433
    17  H    4.276128   5.028267   5.607892   5.960931   5.948720
    18  Fe   4.776757   5.107588   6.125865   2.034673   4.719477
    19  O    5.217003   5.063222   5.907989   2.963746   5.666087
    20  Fe   3.512094   3.073900   4.021802   3.379769   3.183456
    21  O    4.514480   3.850521   4.531290   4.043513   5.036884
    22  O    5.354309   5.049625   6.004455   2.258786   4.310558
    23  Fe   2.009165   2.887686   3.892533   4.329264   2.056657
    24  O    3.060315   3.304291   4.384692   2.799729   2.919335
    25  C    5.135372   4.688609   5.402831   3.757291   5.760208
    26  H    5.983812   5.444908   6.016058   4.676015   6.812049
    27  C    5.974030   5.892575   6.916879   1.244504   4.764967
    28  H    6.984819   6.881091   7.891481   1.991433   5.516470
    29  N    8.621905   8.524380   9.407466   3.897616   8.448857
    30  N    8.084188   7.914245   8.814696   3.214594   7.712382
    31  O    6.290250   6.648521   7.627140   2.640566   6.265722
                   11         12         13         14         15
    11  O    0.000000
    12  C    1.257542   0.000000
    13  H    2.000042   1.101967   0.000000
    14  O    5.851981   5.989825   7.055048   0.000000
    15  O    5.354953   5.049747   6.004269   2.259289   0.000000
    16  C    5.976696   5.894490   6.918583   1.244100   1.261498
    17  H    6.984614   6.880348   7.890412   1.991009   1.999669
    18  Fe   4.780545   5.112086   6.131718   2.035206   3.399676
    19  O    5.023886   5.756540   6.808096   2.933166   4.583817
    20  Fe   2.008884   2.887491   3.892279   4.340457   4.456410
    21  O    3.840656   4.803974   5.778226   4.370567   5.171624
    22  O    2.789666   3.784295   4.567969   5.080045   5.701985
    23  Fe   3.511410   3.073101   4.020916   3.384066   1.989958
    24  O    3.063724   3.308013   4.388912   2.805212   2.854255
    25  C    4.798203   5.684069   6.707515   3.793489   5.126909
    26  H    5.768970   6.704785   7.708730   4.490514   5.976392
    27  C    3.665503   4.419869   5.170327   4.943169   5.770601
    28  H    4.284244   5.037741   5.621109   5.962477   6.802944
    29  N    7.546782   8.366025   9.265116   5.542589   7.538556
    30  N    6.634668   7.513585   8.370856   5.489012   7.289446
    31  O    6.290048   6.652914   7.633470   2.645081   4.495787
                   16         17         18         19         20
    16  C    0.000000
    17  H    1.103113   0.000000
    18  Fe   2.993102   3.962094   0.000000
    19  O    3.969835   4.716997   2.132288   0.000000
    20  Fe   4.700385   5.668736   3.376100   3.111983   0.000000
    21  O    4.972475   5.737837   3.723033   2.260860   1.957534
    22  O    5.772254   6.803446   3.399913   3.198537   1.988743
    23  Fe   2.959700   3.905558   3.375749   4.542522   3.160738
    24  O    3.105589   4.171897   1.999192   2.831110   1.862049
    25  C    4.635953   5.329513   3.195811   1.237265   2.819305
    26  H    5.354107   5.894731   4.112349   1.999053   3.822096
    27  C    5.752665   6.797309   2.993192   3.291220   2.957889
    28  H    6.796912   7.840574   3.960880   4.233890   3.904822
    29  N    6.778143   7.417837   4.287837   3.546787   6.016738
    30  N    6.678936   7.437005   3.974645   3.178963   5.211054
    31  O    3.780364   4.496237   1.616743   2.748073   4.860621
                   21         22         23         24         25
    21  O    0.000000
    22  O    2.806203   0.000000
    23  Fe   4.533100   4.454787   0.000000
    24  O    3.016240   2.855310   1.861273   0.000000
    25  C    1.272346   3.191773   4.885786   3.222731   0.000000
    26  H    1.997432   4.102273   5.908921   4.304147   1.103351
    27  C    3.698991   1.261311   4.696739   3.105662   3.702757
    28  H    4.603052   1.999689   5.667956   4.173561   4.607082
    29  N    5.245121   4.877196   7.532423   5.793747   4.220374
    30  N    4.566853   3.898711   7.011644   5.210233   3.721437
    31  O    4.848154   4.484459   4.866979   3.615917   3.983400
                   26         27         28         29         30
    26  H    0.000000
    27  C    4.597347   0.000000
    28  H    5.394215   1.102780   0.000000
    29  N    4.253331   4.246129   4.416799   0.000000
    30  N    3.903378   3.318448   3.444305   1.094969   0.000000
    31  O    4.624443   3.769512   4.481456   3.447984   3.520841
                   31
    31  O    0.000000
 Symmetry turned off by external request.
 Stoichiometry    C6H6Fe3N2O14(15)
 Framework group  C1[X(C6H6Fe3N2O14)]
 Deg. of freedom    87
 Full point group                 C1      NOp   1
 Rotational constants (GHZ):           0.2585554           0.1797092           0.1468925
 Leave Link  202 at Sat Jan 21 14:02:51 2023, MaxMem= 14763950080 cpu:               0.0 elap:               0.1
 (Enter /software/commercial/gaussian/g16/AVX2/g16/l301.exe)
 General basis read from cards:  (5D, 7F)
 Centers:       4      8     13     17     26     28
 S 3 1.00
     Exponent=  3.4061341000D+01 Coefficients=  6.0251978000D-03
     Exponent=  5.1235746000D+00 Coefficients=  4.5021094000D-02
     Exponent=  1.1646626000D+00 Coefficients=  2.0189726000D-01
 S 1 1.00
     Exponent=  3.2723041000D-01 Coefficients=  1.0000000000D+00
 S 1 1.00
     Exponent=  1.0307241000D-01 Coefficients=  1.0000000000D+00
 P 1 1.00
     Exponent=  8.0000000000D-01 Coefficients=  1.0000000000D+00
 ****
 Centers:       1      2      5      6      9     10     11     14     15     19
 Centers:      21     22     24     31
 S 6 1.00
     Exponent=  2.7032382631D+04 Coefficients=  2.1726302465D-04
     Exponent=  4.0523871392D+03 Coefficients=  1.6838662199D-03
     Exponent=  9.2232722710D+02 Coefficients=  8.7395616265D-03
     Exponent=  2.6124070989D+02 Coefficients=  3.5239968808D-02
     Exponent=  8.5354641351D+01 Coefficients=  1.1153519115D-01
     Exponent=  3.1035035245D+01 Coefficients=  2.5588953961D-01
 S 2 1.00
     Exponent=  1.2260860728D+01 Coefficients=  3.9768730901D-01
     Exponent=  4.9987076005D+00 Coefficients=  2.4627849430D-01
 S 1 1.00
     Exponent=  1.1703108158D+00 Coefficients=  1.0000000000D+00
 S 1 1.00
     Exponent=  4.6474740994D-01 Coefficients=  1.0000000000D+00
 S 1 1.00
     Exponent=  1.8504536357D-01 Coefficients=  1.0000000000D+00
 P 4 1.00
     Exponent=  6.3274954801D+01 Coefficients=  6.0685103418D-03
     Exponent=  1.4627049379D+01 Coefficients=  4.1912575824D-02
     Exponent=  4.4501223456D+00 Coefficients=  1.6153841088D-01
     Exponent=  1.5275799647D+00 Coefficients=  3.5706951311D-01
 P 1 1.00
     Exponent=  5.2935117943D-01 Coefficients=  4.4794207502D-01
 P 1 1.00
     Exponent=  1.7478421270D-01 Coefficients=  2.4446069663D-01
 D 1 1.00
     Exponent=  2.3140000000D+00 Coefficients=  1.0000000000D+00
 D 1 1.00
     Exponent=  6.4500000000D-01 Coefficients=  1.0000000000D+00
 F 1 1.00
     Exponent=  1.4280000000D+00 Coefficients=  1.0000000000D+00
 ****
 Centers:       3      7     12     16     25     27
 S 6 1.00
     Exponent=  1.3575349682D+04 Coefficients=  2.2245814352D-04
     Exponent=  2.0352333680D+03 Coefficients=  1.7232738252D-03
     Exponent=  4.6322562359D+02 Coefficients=  8.9255715314D-03
     Exponent=  1.3120019598D+02 Coefficients=  3.5727984502D-02
     Exponent=  4.2853015891D+01 Coefficients=  1.1076259931D-01
     Exponent=  1.5584185766D+01 Coefficients=  2.4295627626D-01
 S 2 1.00
     Exponent=  6.2067138508D+00 Coefficients=  4.1440263448D-01
     Exponent=  2.5764896527D+00 Coefficients=  2.3744968655D-01
 S 1 1.00
     Exponent=  5.7696339419D-01 Coefficients=  1.0000000000D+00
 S 1 1.00
     Exponent=  2.2972831358D-01 Coefficients=  1.0000000000D+00
 S 1 1.00
     Exponent=  9.5164440028D-02 Coefficients=  1.0000000000D+00
 P 4 1.00
     Exponent=  3.4697232244D+01 Coefficients=  5.3333657805D-03
     Exponent=  7.9582622826D+00 Coefficients=  3.5864109092D-02
     Exponent=  2.3780826883D+00 Coefficients=  1.4215873329D-01
     Exponent=  8.1433208183D-01 Coefficients=  3.4270471845D-01
 P 1 1.00
     Exponent=  2.8887547253D-01 Coefficients=  4.6445822433D-01
 P 1 1.00
     Exponent=  1.0056823671D-01 Coefficients=  2.4955789874D-01
 D 1 1.00
     Exponent=  1.0970000000D+00 Coefficients=  1.0000000000D+00
 D 1 1.00
     Exponent=  3.1800000000D-01 Coefficients=  1.0000000000D+00
 F 1 1.00
     Exponent=  7.6100000000D-01 Coefficients=  1.0000000000D+00
 ****
 Centers:      18     20     23
 S 8 1.00
     Exponent=  3.0078484637D+05 Coefficients=  2.2806273096D-04
     Exponent=  4.5088970557D+04 Coefficients=  1.7681788761D-03
     Exponent=  1.0262516317D+04 Coefficients=  9.1927083490D-03
     Exponent=  2.9052897293D+03 Coefficients=  3.7355495807D-02
     Exponent=  9.4611487137D+02 Coefficients=  1.2151108426D-01
     Exponent=  3.3987832894D+02 Coefficients=  2.8818881468D-01
     Exponent=  1.3194425588D+02 Coefficients=  4.1126612677D-01
     Exponent=  5.2111494077D+01 Coefficients=  2.1518583573D-01
 S 4 1.00
     Exponent=  3.2948839267D+02 Coefficients= -2.4745216477D-02
     Exponent=  1.0192332739D+02 Coefficients= -1.1683089050D-01
     Exponent=  1.6240462745D+01 Coefficients=  5.5293621136D-01
     Exponent=  6.8840675801D+00 Coefficients=  5.3601640182D-01
 S 2 1.00
     Exponent=  1.0470693782D+01 Coefficients= -2.2912708577D-01
     Exponent=  1.7360039648D+00 Coefficients=  7.1159319984D-01
 S 1 1.00
     Exponent=  7.2577288979D-01 Coefficients=  1.0000000000D+00
 S 1 1.00
     Exponent=  1.1595528203D-01 Coefficients=  1.0000000000D+00
 S 1 1.00
     Exponent=  4.1968227746D-02 Coefficients=  1.0000000000D+00
 P 6 1.00
     Exponent=  1.5853959970D+03 Coefficients=  2.3793960179D-03
     Exponent=  3.7538006499D+02 Coefficients=  1.9253154755D-02
     Exponent=  1.2031816501D+02 Coefficients=  9.0021836536D-02
     Exponent=  4.4788749031D+01 Coefficients=  2.5798172356D-01
     Exponent=  1.7829278584D+01 Coefficients=  4.1492649744D-01
     Exponent=  7.2247153786D+00 Coefficients=  2.4207474784D-01
 P 3 1.00
     Exponent=  2.8143219756D+01 Coefficients= -2.9041755152D-02
     Exponent=  3.8743241412D+00 Coefficients=  5.5312260343D-01
     Exponent=  1.5410752281D+00 Coefficients=  9.6771136842D-01
 P 1 1.00
     Exponent=  5.8285615250D-01 Coefficients=  1.0000000000D+00
 P 1 1.00
     Exponent=  1.3491500000D-01 Coefficients=  1.0000000000D+00
 D 4 1.00
     Exponent=  6.1996675034D+01 Coefficients=  1.1971972255D-02
     Exponent=  1.7873732552D+01 Coefficients=  7.3210135410D-02
     Exponent=  6.2744782934D+00 Coefficients=  2.3103094314D-01
     Exponent=  2.3552337175D+00 Coefficients=  3.9910706494D-01
 D 1 1.00
     Exponent=  8.5432239901D-01 Coefficients=  4.1391589765D-01
 D 1 1.00
     Exponent=  2.7869254413D-01 Coefficients=  2.1909269782D-01
 D 1 1.00
     Exponent=  9.1000000000D-02 Coefficients=  1.0000000000D+00
 F 1 1.00
     Exponent=  1.5980000000D+00 Coefficients=  1.0000000000D+00
 ****
 Centers:      29     30
 S 6 1.00
     Exponent=  1.9730800647D+04 Coefficients=  2.1887984991D-04
     Exponent=  2.9578958745D+03 Coefficients=  1.6960708803D-03
     Exponent=  6.7322133595D+02 Coefficients=  8.7954603538D-03
     Exponent=  1.9068249494D+02 Coefficients=  3.5359382605D-02
     Exponent=  6.2295441898D+01 Coefficients=  1.1095789217D-01
     Exponent=  2.2654161182D+01 Coefficients=  2.4982972552D-01
 S 2 1.00
     Exponent=  8.9791477428D+00 Coefficients=  4.0623896148D-01
     Exponent=  3.6863002370D+00 Coefficients=  2.4338217176D-01
 S 1 1.00
     Exponent=  8.4660076805D-01 Coefficients=  1.0000000000D+00
 S 1 1.00
     Exponent=  3.3647133771D-01 Coefficients=  1.0000000000D+00
 S 1 1.00
     Exponent=  1.3647653675D-01 Coefficients=  1.0000000000D+00
 P 4 1.00
     Exponent=  4.9200380510D+01 Coefficients=  5.5552416751D-03
     Exponent=  1.1346790537D+01 Coefficients=  3.8052379723D-02
     Exponent=  3.4273972411D+00 Coefficients=  1.4953671029D-01
     Exponent=  1.1785525134D+00 Coefficients=  3.4949305230D-01
 P 1 1.00
     Exponent=  4.1642204972D-01 Coefficients=  4.5843153697D-01
 P 1 1.00
     Exponent=  1.4260826011D-01 Coefficients=  2.4428771672D-01
 D 1 1.00
     Exponent=  1.6540000000D+00 Coefficients=  1.0000000000D+00
 D 1 1.00
     Exponent=  4.6900000000D-01 Coefficients=  1.0000000000D+00
 F 1 1.00
     Exponent=  1.0930000000D+00 Coefficients=  1.0000000000D+00
 ****
 Ernie: Thresh=  0.10000D-02 Tol=  0.10000D-05 Strict=F.
   853 basis functions,  1476 primitive gaussians,   984 cartesian basis functions
   130 alpha electrons      116 beta electrons
       nuclear repulsion energy      4458.7516702349 Hartrees.
 IExCor= 4134 DFT=T Ex+Corr=M06L ExCW=0 ScaHFX=  0.000000
 ScaDFX=  1.000000  1.000000  1.000000  1.000000 ScalE2=  1.000000  1.000000
 IRadAn=      5 IRanWt=     -1 IRanGd=            0 ICorTp=0 IEmpDi=  4
 NAtoms=   31 NActive=   31 NUniq=   31 SFac= 1.00D+00 NAtFMM=   60 NAOKFM=F Big=F
 Integral buffers will be    131072 words long.
 Raffenetti 2 integral format.
 Two-electron integral symmetry is turned off.
 Leave Link  301 at Sat Jan 21 14:02:52 2023, MaxMem= 14763950080 cpu:               0.1 elap:               0.1
 (Enter /software/commercial/gaussian/g16/AVX2/g16/l302.exe)
 NPDir=0 NMtPBC=     1 NCelOv=     1 NCel=       1 NClECP=     1 NCelD=      1
         NCelK=      1 NCelE2=     1 NClLst=     1 CellRange=     0.0.
 One-electron integrals computed using PRISM.
 NBasis=   853 RedAO= T EigKep=  2.02D-04  NBF=   853
 NBsUse=   853 1.00D-06 EigRej= -1.00D+00 NBFU=   853
 Precomputing XC quadrature grid using
 IXCGrd= 4 IRadAn=           5 IRanWt=          -1 IRanGd=           0 AccXCQ= 0.00D+00.
 Generated NRdTot=       0 NPtTot=           0 NUsed=           0 NTot=          32
 NSgBfM=   966   966   966   966   966 MxSgAt=    31 MxSgA2=    31.
 Leave Link  302 at Sat Jan 21 14:02:54 2023, MaxMem= 14763950080 cpu:               2.3 elap:               1.5
 (Enter /software/commercial/gaussian/g16/AVX2/g16/l303.exe)
 DipDrv:  MaxL=1.
 Leave Link  303 at Sat Jan 21 14:02:54 2023, MaxMem= 14763950080 cpu:               0.2 elap:               0.2
 (Enter /software/commercial/gaussian/g16/AVX2/g16/l401.exe)
 ExpMin= 4.20D-02 ExpMax= 3.01D+05 ExpMxC= 2.91D+03 IAcc=3 IRadAn=         5 AccDes= 0.00D+00
 Harris functional with IExCor= 1009 and IRadAn=       5 diagonalized for initial guess.
 HarFok:  IExCor= 1009 AccDes= 0.00D+00 IRadAn=         5 IDoV= 1 UseB2=F ITyADJ=14
 ICtDFT=  3500011 ScaDFX=  1.000000  1.000000  1.000000  1.000000
 FoFCou: FMM=F IPFlag=           0 FMFlag=      100000 FMFlg1=           0
         NFxFlg=           0 DoJE=T BraDBF=F KetDBF=T FulRan=T
         wScrn=  0.000000 ICntrl=       500 IOpCl=  0 I1Cent=   200000004 NGrid=           0
         NMat0=    1 NMatS0=      1 NMatT0=    0 NMatD0=    1 NMtDS0=    0 NMtDT0=    0
 Symmetry not used in FoFCou.
 Harris En= -5184.63028868228    
 JPrj=0 DoOrth=F DoCkMO=F.
 Initial guess <Sx>= 0.0000 <Sy>= 0.0000 <Sz>= 7.0000 <S**2>=56.0000 S= 7.0000
 Leave Link  401 at Sat Jan 21 14:03:08 2023, MaxMem= 14763950080 cpu:              27.2 elap:              14.0
 (Enter /software/commercial/gaussian/g16/AVX2/g16/l502.exe)
 Two-electron integral symmetry not used.
 UHF open shell SCF:
 Using DIIS extrapolation, IDIIS=  1040.
 NGot= 14763950080 LenX= 14762000842 LenY= 14761031602
 Requested convergence on RMS density matrix=1.00D-08 within 150 cycles.
 Requested convergence on MAX density matrix=1.00D-06.
 Requested convergence on             energy=1.00D-06.
 No special actions if energy rises.
 Fock matrices will be formed incrementally for  20 cycles.

 Cycle   1  Pass 1  IDiag  1:
 FoFJK:  IHMeth= 1 ICntrl=     500 DoSepK=F KAlg= 0 I1Cent=           0 FoldK=F
 IRaf= 780000000 NMat=       1 IRICut=       1 DoRegI=T DoRafI=F ISym2E= 0 IDoP0=0 IntGTp=1.
 FoFCou: FMM=F IPFlag=           0 FMFlag=      100000 FMFlg1=           0
         NFxFlg=           0 DoJE=T BraDBF=F KetDBF=F FulRan=T
         wScrn=  0.000000 ICntrl=       500 IOpCl=  0 I1Cent=           0 NGrid=           0
         NMat0=    1 NMatS0=      1 NMatT0=    0 NMatD0=    1 NMtDS0=    0 NMtDT0=    0
 Symmetry not used in FoFCou.
 E= -5185.10989503855    
 DIIS: error= 8.26D-02 at cycle   1 NSaved=   1.
 NSaved= 1 IEnMin= 1 EnMin= -5185.10989503855     IErMin= 1 ErrMin= 8.26D-02
 ErrMax= 8.26D-02  0.00D+00 EMaxC= 1.00D-01 BMatC= 1.34D+01 BMatP= 1.34D+01
 IDIUse=3 WtCom= 1.74D-01 WtEn= 8.26D-01
 Coeff-Com:  0.100D+01
 Coeff-En:   0.100D+01
 Coeff:      0.100D+01
 Gap=     0.117 Goal=   None    Shift=    0.000
 Gap=    -0.420 Goal=   None    Shift=    0.000
 GapD=   -0.420 DampG=0.250 DampE=0.250 DampFc=0.1250 IDamp=-1.
 Damping current iteration by 1.25D-01
 RMSDP=5.13D-03 MaxDP=1.65D+00              OVMax= 9.71D-01

 Cycle   2  Pass 1  IDiag  1:
 RMSU=  6.40D-04    CP:  9.98D-01
 E= -5185.73710460955     Delta-E=       -0.627209570997 Rises=F Damp=T
 DIIS: error= 2.71D-02 at cycle   2 NSaved=   2.
 NSaved= 2 IEnMin= 2 EnMin= -5185.73710460955     IErMin= 2 ErrMin= 2.71D-02
 ErrMax= 2.71D-02  0.00D+00 EMaxC= 1.00D-01 BMatC= 2.77D+00 BMatP= 1.34D+01
 IDIUse=3 WtCom= 7.29D-01 WtEn= 2.71D-01
 Coeff-Com: -0.435D+00 0.144D+01
 Coeff-En:   0.107D+00 0.893D+00
 Coeff:     -0.289D+00 0.129D+01
 Gap=    -0.021 Goal=   None    Shift=    0.000
 Gap=    -0.099 Goal=   None    Shift=    0.000
 RMSDP=2.22D-03 MaxDP=2.87D-01 DE=-6.27D-01 OVMax= 8.95D-01

 Cycle   3  Pass 1  IDiag  1:
 RMSU=  2.21D-03    CP:  9.84D-01  1.03D+00
 E= -5174.28426797568     Delta-E=       11.452836633875 Rises=F Damp=F
 DIIS: error= 3.21D-01 at cycle   3 NSaved=   3.
 NSaved= 3 IEnMin= 2 EnMin= -5185.73710460955     IErMin= 2 ErrMin= 2.71D-02
 ErrMax= 3.21D-01  0.00D+00 EMaxC= 1.00D-01 BMatC= 5.69D+01 BMatP= 2.77D+00
 IDIUse=2 WtCom= 0.00D+00 WtEn= 1.00D+00
 EnCoef did     2 forward-backward iterations
 Coeff-En:   0.970D-01 0.835D+00 0.682D-01
 Coeff:      0.970D-01 0.835D+00 0.682D-01
 Gap=     0.228 Goal=   None    Shift=    0.000
 Gap=     0.015 Goal=   None    Shift=    0.000
 RMSDP=2.64D-03 MaxDP=3.33D-01 DE= 1.15D+01 OVMax= 8.64D-01

 Cycle   4  Pass 1  IDiag  1:
 RMSU=  1.79D-03    CP:  9.88D-01  1.93D+00  1.62D-01
 E= -5177.65364638249     Delta-E=       -3.369378406813 Rises=F Damp=F
 DIIS: error= 1.58D-01 at cycle   4 NSaved=   4.
 NSaved= 4 IEnMin= 2 EnMin= -5185.73710460955     IErMin= 2 ErrMin= 2.71D-02
 ErrMax= 1.58D-01  0.00D+00 EMaxC= 1.00D-01 BMatC= 5.48D+01 BMatP= 2.77D+00
 IDIUse=2 WtCom= 0.00D+00 WtEn= 1.00D+00
 EnCoef did   100 forward-backward iterations
 Coeff-En:   0.629D+00 0.289D-01 0.105D+00 0.237D+00
 Coeff:      0.629D+00 0.289D-01 0.105D+00 0.237D+00
 Gap=     0.039 Goal=   None    Shift=    0.000
 Gap=    -0.002 Goal=   None    Shift=    0.000
 RMSDP=1.77D-03 MaxDP=3.23D-01 DE=-3.37D+00 OVMax= 8.07D-01

 Cycle   5  Pass 1  IDiag  1:
 RMSU=  1.17D-03    CP:  9.96D-01  1.19D+00  2.58D-01  3.20D-01
 E= -5183.44655792647     Delta-E=       -5.792911543978 Rises=F Damp=F
 DIIS: error= 2.28D-01 at cycle   5 NSaved=   5.
 NSaved= 5 IEnMin= 2 EnMin= -5185.73710460955     IErMin= 2 ErrMin= 2.71D-02
 ErrMax= 2.28D-01  0.00D+00 EMaxC= 1.00D-01 BMatC= 2.59D+01 BMatP= 2.77D+00
 IDIUse=2 WtCom= 0.00D+00 WtEn= 1.00D+00
 EnCoef did   100 forward-backward iterations
 Coeff-En:   0.595D+00 0.104D-01 0.304D-02 0.148D+00 0.244D+00
 Coeff:      0.595D+00 0.104D-01 0.304D-02 0.148D+00 0.244D+00
 Gap=     0.025 Goal=   None    Shift=    0.000
 Gap=    -0.011 Goal=   None    Shift=    0.000
 RMSDP=1.47D-03 MaxDP=3.25D-01 DE=-5.79D+00 OVMax= 7.19D-01

 Cycle   6  Pass 1  IDiag  1:
 RMSU=  9.93D-04    CP:  9.98D-01  8.74D-01  2.02D-01  3.66D-01  9.51D-02
 E= -5185.35049226950     Delta-E=       -1.903934343036 Rises=F Damp=F
 DIIS: error= 5.83D-02 at cycle   6 NSaved=   6.
 NSaved= 6 IEnMin= 2 EnMin= -5185.73710460955     IErMin= 2 ErrMin= 2.71D-02
 ErrMax= 5.83D-02  0.00D+00 EMaxC= 1.00D-01 BMatC= 8.97D+00 BMatP= 2.77D+00
 IDIUse=2 WtCom= 0.00D+00 WtEn= 1.00D+00
 EnCoef did   100 forward-backward iterations
 Coeff-En:   0.339D+00 0.114D-01 0.000D+00 0.124D-01 0.277D+00 0.361D+00
 Coeff:      0.339D+00 0.114D-01 0.000D+00 0.124D-01 0.277D+00 0.361D+00
 Gap=     0.229 Goal=   None    Shift=    0.000
 Gap=     0.098 Goal=   None    Shift=    0.000
 RMSDP=1.54D-03 MaxDP=1.96D-01 DE=-1.90D+00 OVMax= 9.93D-01

 Cycle   7  Pass 1  IDiag  1:
 RMSU=  1.01D-03    CP:  9.94D-01  1.03D+00  4.84D-02  6.03D-01  1.67D-01
                    CP: -2.44D-02
 E= -5182.40412481031     Delta-E=        2.946367459192 Rises=F Damp=F
 DIIS: error= 8.05D-02 at cycle   7 NSaved=   7.
 NSaved= 7 IEnMin= 2 EnMin= -5185.73710460955     IErMin= 2 ErrMin= 2.71D-02
 ErrMax= 8.05D-02  0.00D+00 EMaxC= 1.00D-01 BMatC= 1.51D+01 BMatP= 2.77D+00
 IDIUse=2 WtCom= 0.00D+00 WtEn= 1.00D+00
 EnCoef did   100 forward-backward iterations
 Coeff-En:   0.321D+00 0.242D-02 0.000D+00 0.281D-02 0.266D+00 0.326D+00
 Coeff-En:   0.825D-01
 Coeff:      0.321D+00 0.242D-02 0.000D+00 0.281D-02 0.266D+00 0.326D+00
 Coeff:      0.825D-01
 Gap=     0.158 Goal=   None    Shift=    0.000
 Gap=    -0.018 Goal=   None    Shift=    0.000
 RMSDP=1.22D-03 MaxDP=2.15D-01 DE= 2.95D+00 OVMax= 9.73D-01

 Cycle   8  Pass 1  IDiag  1:
 RMSU=  4.63D-04    CP:  1.00D+00  6.24D-01  1.24D-01  2.58D-01  4.21D-01
                    CP:  3.67D-01  2.64D-01
 E= -5186.69358664354     Delta-E=       -4.289461833230 Rises=F Damp=F
 DIIS: error= 1.35D-02 at cycle   8 NSaved=   8.
 NSaved= 8 IEnMin= 8 EnMin= -5186.69358664354     IErMin= 8 ErrMin= 1.35D-02
 ErrMax= 1.35D-02  0.00D+00 EMaxC= 1.00D-01 BMatC= 7.42D-01 BMatP= 2.77D+00
 IDIUse=3 WtCom= 8.65D-01 WtEn= 1.35D-01
 EnCoef did   100 forward-backward iterations
 Coeff-Com: -0.198D+00 0.324D+00 0.170D-01-0.317D-01 0.417D-01 0.150D+00
 Coeff-Com:  0.375D-01 0.660D+00
 Coeff-En:   0.000D+00 0.000D+00 0.000D+00 0.161D-03 0.474D-01 0.110D+00
 Coeff-En:   0.209D-02 0.840D+00
 Coeff:     -0.172D+00 0.280D+00 0.147D-01-0.274D-01 0.425D-01 0.145D+00
 Coeff:      0.327D-01 0.685D+00
 Gap=     0.094 Goal=   None    Shift=    0.000
 Gap=     0.143 Goal=   None    Shift=    0.000
 RMSDP=6.08D-04 MaxDP=1.12D-01 DE=-4.29D+00 OVMax= 3.88D-01

 Cycle   9  Pass 1  IDiag  1:
 RMSU=  5.11D-04    CP:  1.00D+00  7.91D-01  1.36D-01  3.05D-01  3.66D-01
                    CP:  4.94D-01  1.43D-01  4.98D-01
 E= -5186.48502118848     Delta-E=        0.208565455066 Rises=F Damp=F
 DIIS: error= 3.24D-02 at cycle   9 NSaved=   9.
 NSaved= 9 IEnMin= 8 EnMin= -5186.69358664354     IErMin= 8 ErrMin= 1.35D-02
 ErrMax= 3.24D-02  0.00D+00 EMaxC= 1.00D-01 BMatC= 2.04D+00 BMatP= 7.42D-01
 IDIUse=2 WtCom= 0.00D+00 WtEn= 1.00D+00
 Coeff-En:   0.000D+00 0.000D+00 0.000D+00 0.000D+00 0.000D+00 0.000D+00
 Coeff-En:   0.000D+00 0.676D+00 0.324D+00
 Coeff:      0.000D+00 0.000D+00 0.000D+00 0.000D+00 0.000D+00 0.000D+00
 Coeff:      0.000D+00 0.676D+00 0.324D+00
 Gap=     0.114 Goal=   None    Shift=    0.000
 Gap=     0.057 Goal=   None    Shift=    0.000
 RMSDP=1.29D-03 MaxDP=3.17D-01 DE= 2.09D-01 OVMax= 5.95D-01

 Cycle  10  Pass 1  IDiag  1:
 RMSU=  8.84D-04    CP:  9.96D-01  1.49D+00  1.26D-01  5.48D-01  4.01D-01
                    CP:  3.43D-01 -1.47D-01  5.08D-01 -2.10D-01
 E= -5182.81401406360     Delta-E=        3.671007124880 Rises=F Damp=F
 DIIS: error= 1.06D-01 at cycle  10 NSaved=  10.
 NSaved=10 IEnMin= 8 EnMin= -5186.69358664354     IErMin= 8 ErrMin= 1.35D-02
 ErrMax= 1.06D-01  0.00D+00 EMaxC= 1.00D-01 BMatC= 2.73D+01 BMatP= 7.42D-01
 IDIUse=2 WtCom= 0.00D+00 WtEn= 1.00D+00
 EnCoef did     3 forward-backward iterations
 Coeff-En:   0.000D+00 0.000D+00 0.000D+00 0.000D+00 0.000D+00 0.000D+00
 Coeff-En:   0.000D+00 0.640D+00 0.326D+00 0.340D-01
 Coeff:      0.000D+00 0.000D+00 0.000D+00 0.000D+00 0.000D+00 0.000D+00
 Coeff:      0.000D+00 0.640D+00 0.326D+00 0.340D-01
 Gap=     0.048 Goal=   None    Shift=    0.000
 Gap=     0.016 Goal=   None    Shift=    0.000
 RMSDP=9.96D-04 MaxDP=2.69D-01 DE= 3.67D+00 OVMax= 9.72D-01

 Cycle  11  Pass 1  IDiag  1:
 RMSU=  3.27D-04    CP:  1.00D+00  1.00D+00  1.40D-01  3.49D-01  4.50D-01
                    CP:  5.42D-01  6.32D-02  7.29D-01  1.37D-01  1.78D-01
 E= -5186.48163753343     Delta-E=       -3.667623469833 Rises=F Damp=F
 DIIS: error= 4.23D-02 at cycle  11 NSaved=  11.
 NSaved=11 IEnMin= 8 EnMin= -5186.69358664354     IErMin= 8 ErrMin= 1.35D-02
 ErrMax= 4.23D-02  0.00D+00 EMaxC= 1.00D-01 BMatC= 2.41D+00 BMatP= 7.42D-01
 IDIUse=2 WtCom= 0.00D+00 WtEn= 1.00D+00
 EnCoef did     2 forward-backward iterations
 Coeff-En:   0.000D+00 0.000D+00 0.000D+00 0.000D+00 0.000D+00 0.000D+00
 Coeff-En:   0.000D+00 0.551D+00 0.247D+00 0.000D+00 0.202D+00
 Coeff:      0.000D+00 0.000D+00 0.000D+00 0.000D+00 0.000D+00 0.000D+00
 Coeff:      0.000D+00 0.551D+00 0.247D+00 0.000D+00 0.202D+00
 Gap=     0.083 Goal=   None    Shift=    0.000
 Gap=     0.063 Goal=   None    Shift=    0.000
 RMSDP=3.81D-04 MaxDP=6.53D-02 DE=-3.67D+00 OVMax= 1.88D-01

 Cycle  12  Pass 1  IDiag  1:
 RMSU=  1.43D-04    CP:  1.00D+00  7.96D-01  1.18D-01  3.02D-01  3.70D-01
                    CP:  5.40D-01  1.71D-01  7.37D-01  3.50D-01  4.83D-02
                    CP:  3.01D-01
 E= -5186.76431956270     Delta-E=       -0.282682029270 Rises=F Damp=F
 DIIS: error= 2.00D-02 at cycle  12 NSaved=  12.
 NSaved=12 IEnMin=12 EnMin= -5186.76431956270     IErMin= 8 ErrMin= 1.35D-02
 ErrMax= 2.00D-02  0.00D+00 EMaxC= 1.00D-01 BMatC= 3.13D-01 BMatP= 7.42D-01
 IDIUse=3 WtCom= 8.65D-01 WtEn= 1.35D-01
 EnCoef did   100 forward-backward iterations
 Coeff-Com: -0.212D-01 0.150D-01 0.233D-02-0.584D-02 0.189D-03-0.465D-01
 Coeff-Com:  0.192D-02 0.347D+00 0.134D+00-0.869D-02 0.177D+00 0.405D+00
 Coeff-En:   0.000D+00 0.000D+00 0.000D+00 0.000D+00 0.236D-02 0.000D+00
 Coeff-En:   0.000D+00 0.337D+00 0.724D-01 0.000D+00 0.105D+00 0.483D+00
 Coeff:     -0.184D-01 0.130D-01 0.202D-02-0.505D-02 0.483D-03-0.402D-01
 Coeff:      0.166D-02 0.345D+00 0.126D+00-0.752D-02 0.167D+00 0.415D+00
 Gap=     0.084 Goal=   None    Shift=    0.000
 Gap=     0.070 Goal=   None    Shift=    0.000
 RMSDP=1.97D-04 MaxDP=3.54D-02 DE=-2.83D-01 OVMax= 1.19D-01

 Cycle  13  Pass 1  IDiag  1:
 RMSU=  9.81D-05    CP:  1.00D+00  7.86D-01  1.31D-01  2.97D-01  4.32D-01
                    CP:  4.40D-01  1.82D-01  8.47D-01  3.65D-01  4.13D-02
                    CP:  3.31D-01  2.92D-01
 E= -5186.79700054240     Delta-E=       -0.032680979701 Rises=F Damp=F
 DIIS: error= 1.51D-02 at cycle  13 NSaved=  13.
 NSaved=13 IEnMin=13 EnMin= -5186.79700054240     IErMin= 8 ErrMin= 1.35D-02
 ErrMax= 1.51D-02  0.00D+00 EMaxC= 1.00D-01 BMatC= 1.03D-01 BMatP= 3.13D-01
 IDIUse=3 WtCom= 8.65D-01 WtEn= 1.35D-01
 EnCoef did     2 forward-backward iterations
 Coeff-Com:  0.168D-02-0.288D-03 0.147D-03-0.858D-03 0.978D-04-0.311D-01
 Coeff-Com: -0.389D-02 0.951D-01-0.987D-02-0.137D-02 0.206D-01 0.432D+00
 Coeff-Com:  0.498D+00
 Coeff-En:   0.000D+00 0.000D+00 0.000D+00 0.000D+00 0.000D+00 0.000D+00
 Coeff-En:   0.000D+00 0.375D-01 0.000D+00 0.000D+00 0.000D+00 0.312D+00
 Coeff-En:   0.650D+00
 Coeff:      0.145D-02-0.249D-03 0.127D-03-0.742D-03 0.846D-04-0.269D-01
 Coeff:     -0.336D-02 0.873D-01-0.853D-02-0.119D-02 0.178D-01 0.416D+00
 Coeff:      0.518D+00
 Gap=     0.085 Goal=   None    Shift=    0.000
 Gap=     0.071 Goal=   None    Shift=    0.000
 RMSDP=9.74D-05 MaxDP=1.96D-02 DE=-3.27D-02 OVMax= 6.07D-02

 Cycle  14  Pass 1  IDiag  1:
 RMSU=  4.63D-05    CP:  1.00D+00  7.63D-01  1.24D-01  2.85D-01  4.12D-01
                    CP:  4.61D-01  1.91D-01  8.40D-01  3.24D-01  4.74D-02
                    CP:  3.02D-01  6.09D-01  4.66D-01
 E= -5186.81133139244     Delta-E=       -0.014330850037 Rises=F Damp=F
 DIIS: error= 3.83D-03 at cycle  14 NSaved=  14.
 NSaved=14 IEnMin=14 EnMin= -5186.81133139244     IErMin=14 ErrMin= 3.83D-03
 ErrMax= 3.83D-03  0.00D+00 EMaxC= 1.00D-01 BMatC= 8.87D-03 BMatP= 1.03D-01
 IDIUse=3 WtCom= 9.62D-01 WtEn= 3.83D-02
 Coeff-Com: -0.527D-02 0.541D-02-0.191D-04-0.802D-04-0.820D-04-0.923D-02
 Coeff-Com: -0.470D-03 0.242D-01-0.101D-01 0.547D-03-0.270D-02 0.178D+00
 Coeff-Com:  0.324D+00 0.495D+00
 Coeff-En:   0.000D+00 0.000D+00 0.000D+00 0.000D+00 0.000D+00 0.000D+00
 Coeff-En:   0.000D+00 0.000D+00 0.000D+00 0.000D+00 0.000D+00 0.000D+00
 Coeff-En:   0.164D+00 0.836D+00
 Coeff:     -0.507D-02 0.520D-02-0.184D-04-0.771D-04-0.789D-04-0.888D-02
 Coeff:     -0.452D-03 0.233D-01-0.969D-02 0.526D-03-0.260D-02 0.171D+00
 Coeff:      0.318D+00 0.508D+00
 Gap=     0.079 Goal=   None    Shift=    0.000
 Gap=     0.067 Goal=   None    Shift=    0.000
 RMSDP=3.01D-05 MaxDP=2.85D-03 DE=-1.43D-02 OVMax= 1.09D-02

 Cycle  15  Pass 1  IDiag  1:
 RMSU=  1.63D-05    CP:  1.00D+00  7.74D-01  1.24D-01  2.90D-01  4.13D-01
                    CP:  4.62D-01  1.88D-01  8.41D-01  3.34D-01  4.73D-02
                    CP:  3.15D-01  6.00D-01  5.88D-01  6.24D-01
 E= -5186.81268546671     Delta-E=       -0.001354074273 Rises=F Damp=F
 DIIS: error= 4.69D-04 at cycle  15 NSaved=  15.
 NSaved=15 IEnMin=15 EnMin= -5186.81268546671     IErMin=15 ErrMin= 4.69D-04
 ErrMax= 4.69D-04  0.00D+00 EMaxC= 1.00D-01 BMatC= 6.64D-04 BMatP= 8.87D-03
 IDIUse=3 WtCom= 9.95D-01 WtEn= 4.69D-03
 Coeff-Com: -0.570D-02 0.623D-02-0.108D-03-0.248D-04-0.472D-03-0.921D-03
 Coeff-Com:  0.872D-03 0.550D-02-0.425D-02 0.471D-04-0.133D-02 0.471D-01
 Coeff-Com:  0.149D+00 0.371D+00 0.433D+00
 Coeff-En:   0.000D+00 0.000D+00 0.000D+00 0.000D+00 0.000D+00 0.000D+00
 Coeff-En:   0.000D+00 0.000D+00 0.000D+00 0.000D+00 0.000D+00 0.000D+00
 Coeff-En:   0.000D+00 0.000D+00 0.100D+01
 Coeff:     -0.567D-02 0.620D-02-0.108D-03-0.247D-04-0.470D-03-0.917D-03
 Coeff:      0.868D-03 0.547D-02-0.423D-02 0.469D-04-0.132D-02 0.469D-01
 Coeff:      0.149D+00 0.369D+00 0.435D+00
 Gap=     0.079 Goal=   None    Shift=    0.000
 Gap=     0.067 Goal=   None    Shift=    0.000
 RMSDP=1.07D-05 MaxDP=8.62D-04 DE=-1.35D-03 OVMax= 2.91D-03

 Cycle  16  Pass 1  IDiag  1:
 RMSU=  7.60D-06    CP:  1.00D+00  7.74D-01  1.25D-01  2.90D-01  4.14D-01
                    CP:  4.60D-01  1.89D-01  8.42D-01  3.33D-01  4.63D-02
                    CP:  3.14D-01  5.96D-01  5.92D-01  7.12D-01  6.54D-01
 E= -5186.81278359332     Delta-E=       -0.000098126613 Rises=F Damp=F
 DIIS: error= 4.39D-04 at cycle  16 NSaved=  16.
 NSaved=16 IEnMin=16 EnMin= -5186.81278359332     IErMin=16 ErrMin= 4.39D-04
 ErrMax= 4.39D-04  0.00D+00 EMaxC= 1.00D-01 BMatC= 2.20D-04 BMatP= 6.64D-04
 IDIUse=3 WtCom= 9.96D-01 WtEn= 4.39D-03
 Coeff-Com: -0.451D-02 0.548D-02-0.167D-03-0.297D-04-0.546D-03 0.771D-03
 Coeff-Com:  0.941D-03 0.385D-03-0.553D-03 0.144D-03-0.582D-05 0.444D-02
 Coeff-Com:  0.551D-01 0.167D+00 0.300D+00 0.471D+00
 Coeff-En:   0.000D+00 0.000D+00 0.000D+00 0.000D+00 0.000D+00 0.000D+00
 Coeff-En:   0.000D+00 0.000D+00 0.000D+00 0.000D+00 0.000D+00 0.000D+00
 Coeff-En:   0.000D+00 0.000D+00 0.139D+00 0.861D+00
 Coeff:     -0.449D-02 0.545D-02-0.167D-03-0.296D-04-0.543D-03 0.767D-03
 Coeff:      0.937D-03 0.383D-03-0.550D-03 0.143D-03-0.579D-05 0.443D-02
 Coeff:      0.548D-01 0.167D+00 0.300D+00 0.473D+00
 Gap=     0.079 Goal=   None    Shift=    0.000
 Gap=     0.067 Goal=   None    Shift=    0.000
 RMSDP=4.99D-06 MaxDP=6.84D-04 DE=-9.81D-05 OVMax= 1.46D-03

 Cycle  17  Pass 1  IDiag  1:
 RMSU=  4.25D-06    CP:  1.00D+00  7.74D-01  1.24D-01  2.90D-01  4.14D-01
                    CP:  4.60D-01  1.88D-01  8.42D-01  3.32D-01  4.64D-02
                    CP:  3.15D-01  5.97D-01  6.02D-01  7.33D-01  7.30D-01
                    CP:  7.91D-01
 E= -5186.81281243428     Delta-E=       -0.000028840957 Rises=F Damp=F
 DIIS: error= 3.22D-04 at cycle  17 NSaved=  17.
 NSaved=17 IEnMin=17 EnMin= -5186.81281243428     IErMin=17 ErrMin= 3.22D-04
 ErrMax= 3.22D-04  0.00D+00 EMaxC= 1.00D-01 BMatC= 9.63D-05 BMatP= 2.20D-04
 IDIUse=3 WtCom= 9.97D-01 WtEn= 3.22D-03
 Coeff-Com: -0.213D-02 0.282D-02-0.161D-03-0.759D-04-0.152D-03 0.581D-04
 Coeff-Com:  0.709D-03-0.917D-03 0.154D-02 0.191D-03 0.730D-03-0.557D-02
 Coeff-Com: -0.117D-01-0.526D-01-0.129D-02 0.298D+00 0.770D+00
 Coeff-En:   0.000D+00 0.000D+00 0.000D+00 0.000D+00 0.000D+00 0.000D+00
 Coeff-En:   0.000D+00 0.000D+00 0.000D+00 0.000D+00 0.000D+00 0.000D+00
 Coeff-En:   0.000D+00 0.000D+00 0.000D+00 0.000D+00 0.100D+01
 Coeff:     -0.212D-02 0.281D-02-0.160D-03-0.757D-04-0.152D-03 0.580D-04
 Coeff:      0.706D-03-0.914D-03 0.153D-02 0.191D-03 0.728D-03-0.555D-02
 Coeff:     -0.117D-01-0.524D-01-0.128D-02 0.297D+00 0.771D+00
 Gap=     0.079 Goal=   None    Shift=    0.000
 Gap=     0.067 Goal=   None    Shift=    0.000
 RMSDP=4.14D-06 MaxDP=8.10D-04 DE=-2.88D-05 OVMax= 2.14D-03

 Cycle  18  Pass 1  IDiag  1:
 RMSU=  2.61D-06    CP:  1.00D+00  7.75D-01  1.24D-01  2.91D-01  4.14D-01
                    CP:  4.60D-01  1.88D-01  8.43D-01  3.33D-01  4.64D-02
                    CP:  3.17D-01  6.02D-01  6.11D-01  7.47D-01  7.99D-01
                    CP:  1.08D+00  1.13D+00
 E= -5186.81282932587     Delta-E=       -0.000016891590 Rises=F Damp=F
 DIIS: error= 1.17D-04 at cycle  18 NSaved=  18.
 NSaved=18 IEnMin=18 EnMin= -5186.81282932587     IErMin=18 ErrMin= 1.17D-04
 ErrMax= 1.17D-04  0.00D+00 EMaxC= 1.00D-01 BMatC= 3.24D-05 BMatP= 9.63D-05
 IDIUse=3 WtCom= 9.99D-01 WtEn= 1.17D-03
 Coeff-Com: -0.368D-03 0.568D-03-0.100D-03-0.611D-06 0.219D-03-0.397D-03
 Coeff-Com:  0.270D-03 0.347D-03 0.975D-03 0.573D-04-0.728D-04-0.391D-03
 Coeff-Com: -0.289D-01-0.130D+00-0.161D+00-0.151D-01 0.622D+00 0.713D+00
 Coeff-En:   0.000D+00 0.000D+00 0.000D+00 0.000D+00 0.000D+00 0.000D+00
 Coeff-En:   0.000D+00 0.000D+00 0.000D+00 0.000D+00 0.000D+00 0.000D+00
 Coeff-En:   0.000D+00 0.000D+00 0.000D+00 0.000D+00 0.000D+00 0.100D+01
 Coeff:     -0.368D-03 0.568D-03-0.100D-03-0.611D-06 0.218D-03-0.397D-03
 Coeff:      0.270D-03 0.347D-03 0.974D-03 0.572D-04-0.727D-04-0.391D-03
 Coeff:     -0.289D-01-0.130D+00-0.161D+00-0.151D-01 0.621D+00 0.713D+00
 Gap=     0.079 Goal=   None    Shift=    0.000
 Gap=     0.067 Goal=   None    Shift=    0.000
 RMSDP=3.65D-06 MaxDP=6.81D-04 DE=-1.69D-05 OVMax= 1.69D-03

 Cycle  19  Pass 1  IDiag  1:
 RMSU=  1.64D-06    CP:  1.00D+00  7.76D-01  1.24D-01  2.91D-01  4.14D-01
                    CP:  4.60D-01  1.89D-01  8.44D-01  3.34D-01  4.61D-02
                    CP:  3.18D-01  6.10D-01  6.18D-01  7.49D-01  8.60D-01
                    CP:  1.31D+00  1.55D+00  1.01D+00
 E= -5186.81283803725     Delta-E=       -0.000008711373 Rises=F Damp=F
 DIIS: error= 7.26D-05 at cycle  19 NSaved=  19.
 NSaved=19 IEnMin=19 EnMin= -5186.81283803725     IErMin=19 ErrMin= 7.26D-05
 ErrMax= 7.26D-05  0.00D+00 EMaxC= 1.00D-01 BMatC= 5.31D-06 BMatP= 3.24D-05
 IDIUse=1 WtCom= 1.00D+00 WtEn= 0.00D+00
 Coeff-Com:  0.779D-04-0.564D-04-0.336D-04 0.921D-05 0.181D-03-0.331D-03
 Coeff-Com:  0.122D-03 0.639D-03 0.183D-03-0.674D-05-0.171D-03 0.134D-02
 Coeff-Com: -0.148D-01-0.739D-01-0.104D+00-0.735D-01 0.227D+00 0.471D+00
 Coeff-Com:  0.567D+00
 Coeff:      0.779D-04-0.564D-04-0.336D-04 0.921D-05 0.181D-03-0.331D-03
 Coeff:      0.122D-03 0.639D-03 0.183D-03-0.674D-05-0.171D-03 0.134D-02
 Coeff:     -0.148D-01-0.739D-01-0.104D+00-0.735D-01 0.227D+00 0.471D+00
 Coeff:      0.567D+00
 Gap=     0.079 Goal=   None    Shift=    0.000
 Gap=     0.067 Goal=   None    Shift=    0.000
 RMSDP=1.55D-06 MaxDP=2.54D-04 DE=-8.71D-06 OVMax= 6.87D-04

 Cycle  20  Pass 1  IDiag  1:
 RMSU=  8.60D-07    CP:  1.00D+00  7.76D-01  1.24D-01  2.91D-01  4.14D-01
                    CP:  4.60D-01  1.89D-01  8.44D-01  3.34D-01  4.60D-02
                    CP:  3.18D-01  6.13D-01  6.20D-01  7.51D-01  8.78D-01
                    CP:  1.38D+00  1.73D+00  1.22D+00  8.44D-01
 E= -5186.81283909021     Delta-E=       -0.000001052967 Rises=F Damp=F
 DIIS: error= 6.17D-05 at cycle  20 NSaved=  20.
 NSaved=20 IEnMin=20 EnMin= -5186.81283909021     IErMin=20 ErrMin= 6.17D-05
 ErrMax= 6.17D-05  0.00D+00 EMaxC= 1.00D-01 BMatC= 3.05D-06 BMatP= 5.31D-06
 IDIUse=1 WtCom= 1.00D+00 WtEn= 0.00D+00
 Coeff-Com:  0.162D-03-0.183D-03 0.286D-05 0.759D-05 0.582D-04-0.119D-03
 Coeff-Com:  0.397D-04 0.378D-03-0.137D-03-0.233D-04 0.855D-05 0.138D-03
 Coeff-Com: -0.213D-02-0.165D-01-0.297D-01-0.497D-01-0.278D-01 0.147D+00
 Coeff-Com:  0.466D+00 0.513D+00
 Coeff:      0.162D-03-0.183D-03 0.286D-05 0.759D-05 0.582D-04-0.119D-03
 Coeff:      0.397D-04 0.378D-03-0.137D-03-0.233D-04 0.855D-05 0.138D-03
 Coeff:     -0.213D-02-0.165D-01-0.297D-01-0.497D-01-0.278D-01 0.147D+00
 Coeff:      0.466D+00 0.513D+00
 Gap=     0.079 Goal=   None    Shift=    0.000
 Gap=     0.067 Goal=   None    Shift=    0.000
 RMSDP=8.01D-07 MaxDP=1.39D-04 DE=-1.05D-06 OVMax= 3.79D-04

 Cycle  21  Pass 1  IDiag  1:
 Restarting incremental Fock formation.
 E= -5186.81283966817     Delta-E=       -0.000000577955 Rises=F Damp=F
 DIIS: error= 3.36D-05 at cycle  21 NSaved=  20.
 NSaved=20 IEnMin=20 EnMin= -5186.81283966817     IErMin=20 ErrMin= 3.36D-05
 ErrMax= 3.36D-05  0.00D+00 EMaxC= 1.00D-01 BMatC= 6.24D-07 BMatP= 3.05D-06
 IDIUse=1 WtCom= 1.00D+00 WtEn= 0.00D+00
 Coeff-Com:  0.137D-03-0.172D-03 0.908D-05 0.293D-05 0.175D-04-0.911D-05
 Coeff-Com:  0.326D-04-0.828D-04-0.211D-05 0.411D-04-0.913D-03 0.183D-02
 Coeff-Com:  0.474D-02 0.245D-02-0.143D-01-0.679D-01-0.142D-02 0.172D+00
 Coeff-Com:  0.328D+00 0.576D+00
 Coeff:      0.137D-03-0.172D-03 0.908D-05 0.293D-05 0.175D-04-0.911D-05
 Coeff:      0.326D-04-0.828D-04-0.211D-05 0.411D-04-0.913D-03 0.183D-02
 Coeff:      0.474D-02 0.245D-02-0.143D-01-0.679D-01-0.142D-02 0.172D+00
 Coeff:      0.328D+00 0.576D+00
 Gap=     0.079 Goal=   None    Shift=    0.000
 Gap=     0.067 Goal=   None    Shift=    0.000
 RMSDP=3.90D-07 MaxDP=7.25D-05 DE=-5.78D-07 OVMax= 1.67D-04

 Cycle  22  Pass 1  IDiag  1:
 RMSU=  3.90D-07    CP:  1.00D+00
 E= -5186.81283978919     Delta-E=       -0.000000121023 Rises=F Damp=F
 DIIS: error= 1.17D-05 at cycle  22 NSaved=  20.
 NSaved=20 IEnMin=20 EnMin= -5186.81283978919     IErMin=20 ErrMin= 1.17D-05
 ErrMax= 1.17D-05  0.00D+00 EMaxC= 1.00D-01 BMatC= 1.24D-07 BMatP= 6.24D-07
 IDIUse=1 WtCom= 1.00D+00 WtEn= 0.00D+00
 Coeff-Com:  0.740D-04-0.103D-03-0.327D-05 0.443D-04-0.412D-05-0.463D-04
 Coeff-Com: -0.165D-04-0.456D-06 0.112D-04-0.809D-03 0.148D-02 0.610D-02
 Coeff-Com:  0.695D-02 0.532D-03-0.392D-01-0.304D-01 0.159D-01 0.116D+00
 Coeff-Com:  0.416D+00 0.507D+00
 Coeff:      0.740D-04-0.103D-03-0.327D-05 0.443D-04-0.412D-05-0.463D-04
 Coeff:     -0.165D-04-0.456D-06 0.112D-04-0.809D-03 0.148D-02 0.610D-02
 Coeff:      0.695D-02 0.532D-03-0.392D-01-0.304D-01 0.159D-01 0.116D+00
 Coeff:      0.416D+00 0.507D+00
 Gap=     0.079 Goal=   None    Shift=    0.000
 Gap=     0.067 Goal=   None    Shift=    0.000
 RMSDP=2.11D-07 MaxDP=3.23D-05 DE=-1.21D-07 OVMax= 8.61D-05

 Cycle  23  Pass 1  IDiag  1:
 RMSU=  1.99D-07    CP:  1.00D+00  1.18D+00
 E= -5186.81283981415     Delta-E=       -0.000000024957 Rises=F Damp=F
 DIIS: error= 5.52D-06 at cycle  23 NSaved=  20.
 NSaved=20 IEnMin=20 EnMin= -5186.81283981415     IErMin=20 ErrMin= 5.52D-06
 ErrMax= 5.52D-06  0.00D+00 EMaxC= 1.00D-01 BMatC= 4.65D-08 BMatP= 1.24D-07
 IDIUse=1 WtCom= 1.00D+00 WtEn= 0.00D+00
 Coeff-Com:  0.190D-04-0.308D-04 0.826D-06 0.269D-04-0.205D-04 0.148D-04
 Coeff-Com: -0.209D-05-0.531D-04-0.153D-03 0.931D-04 0.173D-02 0.272D-02
 Coeff-Com:  0.481D-02 0.178D-02-0.191D-01-0.615D-01-0.584D-01 0.504D-01
 Coeff-Com:  0.408D+00 0.669D+00
 Coeff:      0.190D-04-0.308D-04 0.826D-06 0.269D-04-0.205D-04 0.148D-04
 Coeff:     -0.209D-05-0.531D-04-0.153D-03 0.931D-04 0.173D-02 0.272D-02
 Coeff:      0.481D-02 0.178D-02-0.191D-01-0.615D-01-0.584D-01 0.504D-01
 Coeff:      0.408D+00 0.669D+00
 Gap=     0.079 Goal=   None    Shift=    0.000
 Gap=     0.067 Goal=   None    Shift=    0.000
 RMSDP=1.62D-07 MaxDP=2.60D-05 DE=-2.50D-08 OVMax= 7.20D-05

 Cycle  24  Pass 1  IDiag  1:
 RMSU=  1.26D-07    CP:  1.00D+00  1.42D+00  1.20D+00
 E= -5186.81283982679     Delta-E=       -0.000000012646 Rises=F Damp=F
 DIIS: error= 1.31D-06 at cycle  24 NSaved=  20.
 NSaved=20 IEnMin=20 EnMin= -5186.81283982679     IErMin=20 ErrMin= 1.31D-06
 ErrMax= 1.31D-06  0.00D+00 EMaxC= 1.00D-01 BMatC= 6.17D-09 BMatP= 4.65D-08
 IDIUse=1 WtCom= 1.00D+00 WtEn= 0.00D+00
 Coeff-Com:  0.146D-04-0.209D-04 0.881D-06 0.306D-05-0.479D-05 0.139D-04
 Coeff-Com: -0.280D-04 0.515D-04-0.222D-03-0.693D-04 0.360D-03 0.209D-02
 Coeff-Com:  0.654D-02-0.643D-02-0.359D-01-0.528D-01-0.502D-01 0.156D+00
 Coeff-Com:  0.416D+00 0.565D+00
 Coeff:      0.146D-04-0.209D-04 0.881D-06 0.306D-05-0.479D-05 0.139D-04
 Coeff:     -0.280D-04 0.515D-04-0.222D-03-0.693D-04 0.360D-03 0.209D-02
 Coeff:      0.654D-02-0.643D-02-0.359D-01-0.528D-01-0.502D-01 0.156D+00
 Coeff:      0.416D+00 0.565D+00
 Gap=     0.079 Goal=   None    Shift=    0.000
 Gap=     0.067 Goal=   None    Shift=    0.000
 RMSDP=6.68D-08 MaxDP=9.82D-06 DE=-1.26D-08 OVMax= 2.80D-05

 Cycle  25  Pass 1  IDiag  1:
 RMSU=  4.74D-08    CP:  1.00D+00  1.53D+00  1.30D+00  1.05D+00
 E= -5186.81283982819     Delta-E=       -0.000000001393 Rises=F Damp=F
 DIIS: error= 2.01D-06 at cycle  25 NSaved=  20.
 NSaved=20 IEnMin=20 EnMin= -5186.81283982819     IErMin=19 ErrMin= 1.31D-06
 ErrMax= 2.01D-06  0.00D+00 EMaxC= 1.00D-01 BMatC= 3.33D-09 BMatP= 6.17D-09
 IDIUse=1 WtCom= 1.00D+00 WtEn= 0.00D+00
 Coeff-Com:  0.404D-05-0.548D-05-0.266D-05-0.105D-04 0.991D-05-0.339D-05
 Coeff-Com:  0.325D-05-0.158D-03-0.204D-03 0.113D-03 0.103D-02 0.372D-02
 Coeff-Com: -0.160D-02-0.117D-01-0.231D-01-0.451D-01 0.106D-01 0.124D+00
 Coeff-Com:  0.393D+00 0.549D+00
 Coeff:      0.404D-05-0.548D-05-0.266D-05-0.105D-04 0.991D-05-0.339D-05
 Coeff:      0.325D-05-0.158D-03-0.204D-03 0.113D-03 0.103D-02 0.372D-02
 Coeff:     -0.160D-02-0.117D-01-0.231D-01-0.451D-01 0.106D-01 0.124D+00
 Coeff:      0.393D+00 0.549D+00
 Gap=     0.079 Goal=   None    Shift=    0.000
 Gap=     0.067 Goal=   None    Shift=    0.000
 RMSDP=2.88D-08 MaxDP=4.10D-06 DE=-1.39D-09 OVMax= 1.09D-05

 Cycle  26  Pass 1  IDiag  1:
 RMSU=  1.93D-08    CP:  1.00D+00  1.56D+00  1.36D+00  1.11D+00  8.41D-01
 E= -5186.81283982878     Delta-E=       -0.000000000595 Rises=F Damp=F
 DIIS: error= 1.30D-06 at cycle  26 NSaved=  20.
 NSaved=20 IEnMin=20 EnMin= -5186.81283982878     IErMin=20 ErrMin= 1.30D-06
 ErrMax= 1.30D-06  0.00D+00 EMaxC= 1.00D-01 BMatC= 6.92D-10 BMatP= 3.33D-09
 IDIUse=1 WtCom= 1.00D+00 WtEn= 0.00D+00
 Coeff-Com:  0.677D-07-0.164D-05-0.734D-05 0.364D-05 0.483D-05-0.244D-04
 Coeff-Com: -0.327D-04-0.113D-03-0.529D-04 0.119D-03 0.669D-03 0.521D-03
 Coeff-Com:  0.967D-03-0.238D-02-0.163D-01-0.289D-01-0.158D-01 0.116D+00
 Coeff-Com:  0.322D+00 0.623D+00
 Coeff:      0.677D-07-0.164D-05-0.734D-05 0.364D-05 0.483D-05-0.244D-04
 Coeff:     -0.327D-04-0.113D-03-0.529D-04 0.119D-03 0.669D-03 0.521D-03
 Coeff:      0.967D-03-0.238D-02-0.163D-01-0.289D-01-0.158D-01 0.116D+00
 Coeff:      0.322D+00 0.623D+00
 Gap=     0.079 Goal=   None    Shift=    0.000
 Gap=     0.067 Goal=   None    Shift=    0.000
 RMSDP=1.44D-08 MaxDP=2.40D-06 DE=-5.95D-10 OVMax= 5.06D-06

 Cycle  27  Pass 1  IDiag  1:
 RMSU=  1.06D-08    CP:  1.00D+00  1.58D+00  1.39D+00  1.13D+00  8.31D-01
                    CP:  9.40D-01
 E= -5186.81283982893     Delta-E=       -0.000000000151 Rises=F Damp=F
 DIIS: error= 5.06D-07 at cycle  27 NSaved=  20.
 NSaved=20 IEnMin=20 EnMin= -5186.81283982893     IErMin=20 ErrMin= 5.06D-07
 ErrMax= 5.06D-07  0.00D+00 EMaxC= 1.00D-01 BMatC= 2.44D-10 BMatP= 6.92D-10
 IDIUse=1 WtCom= 1.00D+00 WtEn= 0.00D+00
 Coeff-Com:  0.202D-06-0.236D-05 0.242D-06 0.424D-05-0.200D-04 0.134D-04
 Coeff-Com: -0.705D-04-0.136D-03-0.283D-03-0.417D-03 0.871D-03 0.339D-02
 Coeff-Com:  0.310D-02-0.304D-02-0.228D-01-0.341D-01 0.816D-02 0.127D+00
 Coeff-Com:  0.470D+00 0.449D+00
 Coeff:      0.202D-06-0.236D-05 0.242D-06 0.424D-05-0.200D-04 0.134D-04
 Coeff:     -0.705D-04-0.136D-03-0.283D-03-0.417D-03 0.871D-03 0.339D-02
 Coeff:      0.310D-02-0.304D-02-0.228D-01-0.341D-01 0.816D-02 0.127D+00
 Coeff:      0.470D+00 0.449D+00
 Gap=     0.079 Goal=   None    Shift=    0.000
 Gap=     0.067 Goal=   None    Shift=    0.000
 RMSDP=6.95D-09 MaxDP=1.02D-06 DE=-1.51D-10 OVMax= 2.38D-06

 Cycle  28  Pass 1  IDiag  1:
 RMSU=  5.19D-09    CP:  1.00D+00  1.59D+00  1.40D+00  1.14D+00  8.49D-01
                    CP:  9.81D-01  7.57D-01
 E= -5186.81283982894     Delta-E=       -0.000000000013 Rises=F Damp=F
 DIIS: error= 1.30D-07 at cycle  28 NSaved=  20.
 NSaved=20 IEnMin=20 EnMin= -5186.81283982894     IErMin=20 ErrMin= 1.30D-07
 ErrMax= 1.30D-07  0.00D+00 EMaxC= 1.00D-01 BMatC= 3.90D-11 BMatP= 2.44D-10
 IDIUse=1 WtCom= 1.00D+00 WtEn= 0.00D+00
 Coeff-Com:  0.233D-05-0.111D-05 0.113D-05 0.239D-05 0.230D-04-0.653D-04
 Coeff-Com: -0.164D-03-0.331D-03-0.353D-03 0.745D-03 0.235D-02 0.269D-02
 Coeff-Com:  0.124D-02-0.923D-02-0.191D-01-0.216D-01 0.755D-02 0.160D+00
 Coeff-Com:  0.317D+00 0.559D+00
 Coeff:      0.233D-05-0.111D-05 0.113D-05 0.239D-05 0.230D-04-0.653D-04
 Coeff:     -0.164D-03-0.331D-03-0.353D-03 0.745D-03 0.235D-02 0.269D-02
 Coeff:      0.124D-02-0.923D-02-0.191D-01-0.216D-01 0.755D-02 0.160D+00
 Coeff:      0.317D+00 0.559D+00
 Gap=     0.079 Goal=   None    Shift=    0.000
 Gap=     0.067 Goal=   None    Shift=    0.000
 RMSDP=3.23D-09 MaxDP=3.99D-07 DE=-1.27D-11 OVMax= 9.37D-07

 SCF Done:  E(UM06L) =  -5186.81283983     A.U. after   28 cycles
            NFock= 28  Conv=0.32D-08     -V/T= 2.0017
 <Sx>= 0.0000 <Sy>= 0.0000 <Sz>= 7.0000 <S**2>=56.0877 S= 7.0058
 <L.S>=  0.00000000000    
 KE= 5.178257494710D+03 PE=-2.122518610584D+04 EE= 6.401364101064D+03
 Annihilation of the first spin contaminant:
 S**2 before annihilation    56.0877,   after    56.0006
 Leave Link  502 at Sat Jan 21 15:22:05 2023, MaxMem= 14763950080 cpu:            9396.2 elap:            4736.2
 (Enter /software/commercial/gaussian/g16/AVX2/g16/l508.exe)
 QCSCF skips out because SCF is already converged.
 Leave Link  508 at Sat Jan 21 15:22:05 2023, MaxMem= 14763950080 cpu:               0.0 elap:               0.1
 (Enter /software/commercial/gaussian/g16/AVX2/g16/l601.exe)
 Copying SCF densities to generalized density rwf, IOpCl= 1 IROHF=0.

 **********************************************************************

            Population analysis using the SCF Density.

 **********************************************************************

 Alpha  occ. eigenvalues -- -255.66758-255.66751-255.63968 -30.11803 -30.11796
 Alpha  occ. eigenvalues --  -30.07982 -25.88925 -25.88918 -25.88851 -25.88846
 Alpha  occ. eigenvalues --  -25.88731 -25.88721 -25.85504 -25.85449 -25.85035
 Alpha  occ. eigenvalues --  -19.00674 -19.00655 -19.00491 -19.00471 -18.99995
 Alpha  occ. eigenvalues --  -18.99965 -18.99934 -18.99903 -18.99452 -18.99400
 Alpha  occ. eigenvalues --  -18.99388 -18.98730 -18.98686 -18.98174 -14.25170
 Alpha  occ. eigenvalues --  -14.25026 -10.20336 -10.20318 -10.19279 -10.19221
 Alpha  occ. eigenvalues --  -10.19057 -10.19010  -3.68587  -3.68580  -3.61832
 Alpha  occ. eigenvalues --   -2.42761  -2.42746  -2.42599  -2.42580  -2.42339
 Alpha  occ. eigenvalues --   -2.42328  -2.36989  -2.36722  -2.34464  -1.09393
 Alpha  occ. eigenvalues --   -1.08798  -1.08176  -1.08053  -1.07602  -1.07557
 Alpha  occ. eigenvalues --   -1.06100  -1.01482  -1.01037  -1.00489  -1.00297
 Alpha  occ. eigenvalues --   -0.99956  -0.99915  -0.96423  -0.90297  -0.61732
 Alpha  occ. eigenvalues --   -0.60582  -0.60027  -0.59872  -0.59450  -0.59389
 Alpha  occ. eigenvalues --   -0.51918  -0.51482  -0.50831  -0.50697  -0.50268
 Alpha  occ. eigenvalues --   -0.50107  -0.49836  -0.49809  -0.49074  -0.48979
 Alpha  occ. eigenvalues --   -0.48069  -0.47946  -0.47803  -0.46932  -0.46569
 Alpha  occ. eigenvalues --   -0.45649  -0.44989  -0.44174  -0.43973  -0.42715
 Alpha  occ. eigenvalues --   -0.42223  -0.41951  -0.41884  -0.41688  -0.41315
 Alpha  occ. eigenvalues --   -0.41179  -0.40656  -0.40244  -0.40043  -0.40008
 Alpha  occ. eigenvalues --   -0.39388  -0.39379  -0.39093  -0.38387  -0.36836
 Alpha  occ. eigenvalues --   -0.36714  -0.35607  -0.35027  -0.33868  -0.32725
 Alpha  occ. eigenvalues --   -0.31849  -0.31760  -0.31350  -0.30813  -0.30768
 Alpha  occ. eigenvalues --   -0.30712  -0.30390  -0.29972  -0.29811  -0.29561
 Alpha  occ. eigenvalues --   -0.29172  -0.28719  -0.27309  -0.27162  -0.26603
 Alpha  occ. eigenvalues --   -0.25840  -0.24910  -0.24590  -0.24165  -0.23985
 Alpha virt. eigenvalues --   -0.16078  -0.05970  -0.05044  -0.04407  -0.04177
 Alpha virt. eigenvalues --   -0.04062  -0.03884  -0.03804  -0.03477   0.01252
 Alpha virt. eigenvalues --    0.01996   0.05691   0.07155   0.07311   0.07527
 Alpha virt. eigenvalues --    0.07724   0.08189   0.08430   0.09526   0.10877
 Alpha virt. eigenvalues --    0.12288   0.13054   0.13784   0.14972   0.15421
 Alpha virt. eigenvalues --    0.16530   0.16685   0.17416   0.18206   0.18741
 Alpha virt. eigenvalues --    0.20149   0.20775   0.21476   0.21689   0.21911
 Alpha virt. eigenvalues --    0.22455   0.23647   0.24166   0.24567   0.24843
 Alpha virt. eigenvalues --    0.25812   0.26184   0.26491   0.26786   0.27268
 Alpha virt. eigenvalues --    0.27651   0.28655   0.28955   0.29188   0.29887
 Alpha virt. eigenvalues --    0.30532   0.31208   0.31525   0.31764   0.32558
 Alpha virt. eigenvalues --    0.33185   0.33518   0.33737   0.34215   0.34943
 Alpha virt. eigenvalues --    0.35354   0.35643   0.36066   0.36275   0.37010
 Alpha virt. eigenvalues --    0.37683   0.37784   0.38230   0.38665   0.38797
 Alpha virt. eigenvalues --    0.39359   0.39483   0.40252   0.40670   0.41216
 Alpha virt. eigenvalues --    0.41699   0.41824   0.41988   0.42305   0.43304
 Alpha virt. eigenvalues --    0.43653   0.44712   0.44868   0.45355   0.45482
 Alpha virt. eigenvalues --    0.46221   0.46648   0.47578   0.48072   0.49081
 Alpha virt. eigenvalues --    0.49629   0.50704   0.50852   0.51572   0.51842
 Alpha virt. eigenvalues --    0.52788   0.53448   0.53739   0.54009   0.54470
 Alpha virt. eigenvalues --    0.55096   0.56013   0.56496   0.56934   0.57542
 Alpha virt. eigenvalues --    0.59496   0.59743   0.60953   0.62338   0.63188
 Alpha virt. eigenvalues --    0.63845   0.64687   0.65590   0.66043   0.66363
 Alpha virt. eigenvalues --    0.66485   0.67605   0.68024   0.68509   0.68629
 Alpha virt. eigenvalues --    0.69292   0.70236   0.70483   0.71084   0.71344
 Alpha virt. eigenvalues --    0.71942   0.72265   0.72652   0.73269   0.73800
 Alpha virt. eigenvalues --    0.74103   0.74961   0.75225   0.75991   0.76230
 Alpha virt. eigenvalues --    0.77171   0.78038   0.79424   0.79803   0.80157
 Alpha virt. eigenvalues --    0.80744   0.81014   0.81712   0.82453   0.83151
 Alpha virt. eigenvalues --    0.84038   0.85455   0.86004   0.86290   0.86666
[...]
    15  O   -0.227076   0.131673  -0.067222   0.002267   0.022071  -0.335642
    16  C    0.206931   0.016744   0.006537  -0.016795   0.013438   0.219431
    17  H    0.051434   0.011710   0.021463  -0.080828   0.116242   0.123744
    18  Fe   0.452057   3.172412   0.060986   0.020217  -0.003246   0.879765
    19  O   -0.206301   0.075597   0.037789   0.035839   0.000230  -0.299766
    20  Fe   0.589982   4.134860   0.005241   0.342914   0.009755   0.940166
    21  O   -0.231378   0.137032  -0.044499  -0.058845  -0.000319  -0.342879
    22  O   -0.226227   0.132211  -0.026763  -0.063111  -0.014686  -0.334893
    23  Fe   0.589896   4.134702   0.310923  -0.138413  -0.038646   0.940056
    24  O   -0.322032   0.541410  -0.021429  -0.013971   0.001862  -0.551178
    25  C    0.201115   0.019228   0.002574   0.014383   0.024127   0.213339
    26  H    0.049089   0.013862  -0.076860   0.045685   0.110908   0.121340
    27  C    0.204128   0.016792   0.002351   0.011427  -0.021031   0.217088
    28  H    0.050616   0.011625  -0.076690   0.044675  -0.113160   0.123417
    29  N    0.009081   0.000719   0.040302   0.020476  -0.026229   0.008115
    30  N    0.001031   0.000772  -0.009973  -0.047817   0.022313  -0.001897
    31  O   -0.231248   0.590624  -0.029518  -0.020156   0.003124  -0.385152
       Tot  -0.000049  14.000001   0.371463   0.154369  -0.039313  -0.000049
 Hirshfeld charges and spin densities with hydrogens summed into heavy atoms:
              Q-H        S-H       Q-CM5   
     1  O   -0.231978   0.137904  -0.343652
     2  O   -0.204367   0.076220  -0.298765
     3  C    0.252507   0.033427   0.336525
     5  O   -0.224630   0.099346  -0.325847
     6  O   -0.226276   0.107215  -0.331551
     7  C    0.256418   0.031853   0.340515
     9  O   -0.195527   0.066443  -0.298881
    10  O   -0.224490   0.099776  -0.325727
    11  O   -0.226160   0.107383  -0.331495
    12  C    0.256513   0.031873   0.340606
    14  O   -0.193156   0.066589  -0.296832
    15  O   -0.227076   0.131673  -0.335642
    16  C    0.258365   0.028454   0.343175
    18  Fe   0.452057   3.172412   0.879765
    19  O   -0.206301   0.075597  -0.299766
    20  Fe   0.589982   4.134860   0.940166
    21  O   -0.231378   0.137032  -0.342879
    22  O   -0.226227   0.132211  -0.334893
    23  Fe   0.589896   4.134702   0.940056
    24  O   -0.322032   0.541410  -0.551178
    25  C    0.250204   0.033090   0.334679
    27  C    0.254744   0.028417   0.340505
    29  N    0.009081   0.000719   0.008115
    30  N    0.001031   0.000772  -0.001897
    31  O   -0.231248   0.590624  -0.385152
 
 EQQ=  13.1039533779     EQD=-0.322444829320     EDD=-0.771838402965E-03
 EQQ+QD+DD=  12.7807367102    
 
                          Isotropic Fermi Contact Couplings
        Atom                 a.u.       MegaHertz       Gauss      10(-4) cm-1
     1  O(17)              0.09469      -4.09991      -1.46295      -1.36758
     2  O(17)              0.10052      -4.35259      -1.55311      -1.45187
     3  C(13)             -0.00267      -0.21403      -0.07637      -0.07139
     4  H(1)               0.00835       2.66541       0.95108       0.88908
     5  O(17)              0.10620      -4.59823      -1.64076      -1.53380
     6  O(17)              0.08789      -3.80568      -1.35796      -1.26944
     7  C(13)             -0.00130      -0.10456      -0.03731      -0.03488
     8  H(1)               0.00793       2.53328       0.90394       0.84501
     9  O(17)              0.06713      -2.90689      -1.03725      -0.96964
    10  O(17)              0.10655      -4.61372      -1.64629      -1.53897
    11  O(17)              0.08833      -3.82478      -1.36478      -1.27581
    12  C(13)             -0.00137      -0.11026      -0.03934      -0.03678
    13  H(1)               0.00796       2.54167       0.90693       0.84781
    14  O(17)              0.06699      -2.90081      -1.03508      -0.96761
    15  O(17)              0.11801      -5.10998      -1.82337      -1.70451
    16  C(13)             -0.00274      -0.22020      -0.07857      -0.07345
    17  H(1)               0.00681       2.17381       0.77567       0.72510
    18  Fe(57)             0.24736       2.56268       0.91443       0.85482
    19  O(17)              0.09964      -4.31450      -1.53952      -1.43916
    20  Fe(57)             0.69689       7.21972       2.57618       2.40824
    21  O(17)              0.09454      -4.09351      -1.46067      -1.36545
    22  O(17)              0.11768      -5.09563      -1.81825      -1.69972
    23  Fe(57)             0.69707       7.22165       2.57686       2.40888
    24  O(17)              0.32948     -14.26658      -5.09067      -4.75882
    25  C(13)             -0.00264      -0.21167      -0.07553      -0.07061
    26  H(1)               0.00827       2.64174       0.94264       0.88119
    27  C(13)             -0.00252      -0.20247      -0.07225      -0.06754
    28  H(1)               0.00679       2.16776       0.77351       0.72309
    29  N(14)              0.00090       0.02084       0.00744       0.00695
    30  N(14)              0.00062       0.01439       0.00514       0.00480
    31  O(17)              0.13794      -5.97262      -2.13118      -1.99225
 --------------------------------------------------------
       Center         ----  Spin Dipole Couplings  ----
                      3XX-RR        3YY-RR        3ZZ-RR
 --------------------------------------------------------
     1   Atom       -0.262282      0.082906      0.179376
     2   Atom       -0.131002      0.079229      0.051773
     3   Atom        0.011641      0.001241     -0.012882
     4   Atom       -0.012800      0.009258      0.003541
     5   Atom        0.055266     -0.068778      0.013512
     6   Atom        0.124534     -0.175036      0.050502
     7   Atom        0.012008      0.012722     -0.024730
     8   Atom        0.009406     -0.007270     -0.002135
     9   Atom        0.006263     -0.095653      0.089390
    10   Atom        0.002875     -0.099812      0.096937
    11   Atom       -0.093330     -0.046347      0.139677
    12   Atom       -0.003394      0.007696     -0.004302
    13   Atom       -0.002844     -0.005797      0.008641
    14   Atom       -0.111273      0.000125      0.111148
    15   Atom       -0.186315      0.103218      0.083097
    16   Atom        0.011404     -0.019267      0.007863
    17   Atom       -0.012389      0.000649      0.011740
    18   Atom       -1.585994      0.193028      1.392966
    19   Atom       -0.024368     -0.049003      0.073370
    20   Atom        0.021104      0.117022     -0.138125
    21   Atom       -0.105951     -0.104162      0.210113
    22   Atom        0.060884     -0.110404      0.049520
    23   Atom        0.106297      0.018466     -0.124763
    24   Atom       -0.190209      0.033497      0.156712
    25   Atom        0.007531     -0.004394     -0.003137
    26   Atom        0.000652     -0.009377      0.008725
    27   Atom       -0.000750      0.005697     -0.004947
    28   Atom        0.003894     -0.010007      0.006113
    29   Atom        0.022180     -0.008635     -0.013546
    30   Atom        0.025649     -0.007982     -0.017667
    31   Atom       -1.191744      0.174214      1.017530
 --------------------------------------------------------
                        XY            XZ            YZ
 --------------------------------------------------------
     1   Atom       -0.091760     -0.039349      0.307865
     2   Atom       -0.041460     -0.012550      0.174485
     3   Atom        0.024524     -0.003634      0.056635
     4   Atom        0.003436      0.000086      0.032106
     5   Atom        0.148834      0.203671      0.142692
     6   Atom        0.116716      0.256191      0.104174
     7   Atom       -0.002206      0.051332      0.033282
     8   Atom        0.012144      0.027860      0.016351
     9   Atom       -0.047790      0.130788     -0.062804
    10   Atom        0.109201     -0.222012     -0.133478
    11   Atom        0.144843     -0.191765     -0.203410
    12   Atom       -0.011204     -0.053194     -0.034839
    13   Atom        0.009303     -0.026972     -0.019817
    14   Atom       -0.011280      0.031435     -0.138904
    15   Atom       -0.081027      0.125519     -0.295974
    16   Atom       -0.000796     -0.013791     -0.053324
    17   Atom       -0.003176      0.002389     -0.031242
    18   Atom       -1.878890      0.083921      0.457474
    19   Atom       -0.105550     -0.134302      0.104804
    20   Atom        0.012325      0.033861     -0.011825
    21   Atom       -0.185314     -0.214874      0.211507
    22   Atom       -0.174865      0.239690     -0.200857
    23   Atom       -0.034938     -0.033409     -0.045108
    24   Atom       -0.253054      0.027048      0.030599
    25   Atom        0.018876     -0.054936      0.023687
    26   Atom       -0.006519     -0.028553      0.015191
    27   Atom        0.013495      0.054823     -0.010838
    28   Atom       -0.006616      0.029393     -0.012534
    29   Atom       -0.006142     -0.003498      0.000618
    30   Atom       -0.012261      0.001092     -0.000664
    31   Atom       -1.461689      0.221038      0.104480
 --------------------------------------------------------


 ---------------------------------------------------------------------------------
              Anisotropic Spin Dipole Couplings in Principal Axis System
 ---------------------------------------------------------------------------------

       Atom             a.u.   MegaHertz   Gauss  10(-4) cm-1        Axes

              Baa    -0.2909    21.047     7.510     7.020  0.9226  0.3536 -0.1543
     1 O(17)  Bbb    -0.1631    11.805     4.212     3.938 -0.3651  0.6711 -0.6452
              Bcc     0.4540   -32.852   -11.722   -10.958 -0.1246  0.6516  0.7483
 
              Baa    -0.1450    10.494     3.745     3.501  0.8790  0.3833 -0.2838
     2 O(17)  Bbb    -0.0995     7.203     2.570     2.403  0.4655 -0.5605  0.6849
              Bcc     0.2446   -17.698    -6.315    -5.903 -0.1035  0.7341  0.6711
 
              Baa    -0.0676    -9.066    -3.235    -3.024  0.2388 -0.6665  0.7062
     3 C(13)  Bbb     0.0103     1.384     0.494     0.462  0.9056 -0.1097 -0.4097
              Bcc     0.0572     7.682     2.741     2.562  0.3505  0.7374  0.5774
 
              Baa    -0.0262   -13.987    -4.991    -4.666  0.1671 -0.6705  0.7229
     4 H(1)   Bbb    -0.0125    -6.695    -2.389    -2.233  0.9847  0.0761 -0.1570
              Bcc     0.0388    20.683     7.380     6.899  0.0503  0.7380  0.6729
 
              Baa    -0.1768    12.794     4.565     4.268 -0.1860 -0.6802  0.7090
     5 O(17)  Bbb    -0.1656    11.984     4.276     3.998  0.7279 -0.5801 -0.3656
              Bcc     0.3424   -24.778    -8.842    -8.265  0.6599  0.4481  0.6030
 
              Baa    -0.2185    15.809     5.641     5.273 -0.1701  0.9626 -0.2108
     6 O(17)  Bbb    -0.1712    12.390     4.421     4.133 -0.6643  0.0460  0.7460
              Bcc     0.3897   -28.198   -10.062    -9.406  0.7278  0.2669  0.6317
 
              Baa    -0.0709    -9.512    -3.394    -3.173 -0.5031 -0.3310  0.7983
     7 C(13)  Bbb     0.0145     1.949     0.695     0.650 -0.5387  0.8424  0.0098
              Bcc     0.0564     7.564     2.699     2.523  0.6758  0.4251  0.6022
 
              Baa    -0.0268   -14.282    -5.096    -4.764 -0.4903 -0.3601  0.7936
     8 H(1)   Bbb    -0.0136    -7.241    -2.584    -2.415 -0.5239  0.8495  0.0618
              Bcc     0.0403    21.523     7.680     7.179  0.6965  0.3855  0.6052
 
              Baa    -0.1164     8.422     3.005     2.809  0.1924  0.9660  0.1725
     9 O(17)  Bbb    -0.0893     6.464     2.306     2.156  0.7972 -0.0514 -0.6015
              Bcc     0.2057   -14.886    -5.312    -4.965  0.5722 -0.2533  0.7800
 
              Baa    -0.1771    12.814     4.572     4.274  0.7912 -0.0684  0.6077
    10 O(17)  Bbb    -0.1668    12.069     4.306     4.026 -0.1707  0.9296  0.3268
              Bcc     0.3439   -24.883    -8.879    -8.300 -0.5873 -0.3623  0.7238
 
              Baa    -0.2187    15.826     5.647     5.279  0.8359 -0.5288  0.1472
    11 O(17)  Bbb    -0.1707    12.352     4.408     4.120  0.3213  0.6888  0.6499
              Bcc     0.3894   -28.178   -10.055    -9.399 -0.4450 -0.4960  0.7456
 
              Baa    -0.0710    -9.525    -3.399    -3.177  0.6082  0.3922  0.6901
    12 C(13)  Bbb     0.0146     1.964     0.701     0.655 -0.5505  0.8347  0.0108
              Bcc     0.0563     7.561     2.698     2.522 -0.5718 -0.3865  0.7236
 
              Baa    -0.0268   -14.286    -5.097    -4.765  0.6288  0.3682  0.6849
    13 H(1)   Bbb    -0.0136    -7.246    -2.585    -2.417 -0.5557  0.8289  0.0647
              Bcc     0.0404    21.531     7.683     7.182 -0.5439 -0.4213  0.7258
 
              Baa    -0.1174     8.498     3.032     2.835  0.9388 -0.2215 -0.2637
    14 O(17)  Bbb    -0.0911     6.589     2.351     2.198  0.3293  0.8014  0.4993
              Bcc     0.2085   -15.087    -5.383    -5.032  0.1007 -0.5556  0.8253
 
              Baa    -0.2462    17.818     6.358     5.944  0.7743 -0.2947 -0.5600
    15 O(17)  Bbb    -0.1778    12.868     4.592     4.292  0.5885  0.6606  0.4661
              Bcc     0.4241   -30.687   -10.950   -10.236 -0.2325  0.6905 -0.6849
 
              Baa    -0.0619    -8.302    -2.962    -2.769  0.1248  0.7761  0.6182
    16 C(13)  Bbb     0.0098     1.320     0.471     0.440  0.9596 -0.2528  0.1236
              Bcc     0.0520     6.982     2.491     2.329 -0.2522 -0.5778  0.7763
 
              Baa    -0.0256   -13.658    -4.874    -4.556  0.0692  0.7673  0.6376
    17 H(1)   Bbb    -0.0126    -6.735    -2.403    -2.247  0.9947 -0.0042 -0.1029
              Bcc     0.0382    20.393     7.277     6.802  0.0763 -0.6413  0.7635
 
              Baa    -2.7992   -48.462   -17.293   -16.165  0.8392  0.5385 -0.0756
    18 Fe(57) Bbb     1.0585    18.325     6.539     6.113  0.4353 -0.5820  0.6868
              Bcc     1.7407    30.137    10.754    10.053 -0.3259  0.6093  0.7229
 
              Baa    -0.1444    10.450     3.729     3.486  0.7333  0.6671  0.1312
    19 O(17)  Bbb    -0.0972     7.035     2.510     2.347  0.4152 -0.5922  0.6906
              Bcc     0.2416   -17.485    -6.239    -5.832 -0.5384  0.4520  0.7112
 
              Baa    -0.1458    -2.524    -0.901    -0.842 -0.2024  0.0535  0.9779
    20 Fe(57) Bbb     0.0270     0.467     0.167     0.156  0.9726 -0.1059  0.2071
              Bcc     0.1188     2.057     0.734     0.686  0.1146  0.9929 -0.0306
 
              Baa    -0.2904    21.014     7.498     7.009  0.7157  0.6983  0.0122
    21 O(17)  Bbb    -0.1632    11.808     4.213     3.939  0.5379 -0.5622  0.6282
              Bcc     0.4536   -32.822   -11.712   -10.948 -0.4455  0.4430  0.7780
 
              Baa    -0.2476    17.917     6.393     5.976  0.0958  0.8588  0.5033
    22 O(17)  Bbb    -0.1788    12.937     4.616     4.315  0.7706  0.2561 -0.5836
              Bcc     0.4264   -30.854   -11.009   -10.292  0.6301 -0.4437  0.6372
 
              Baa    -0.1448    -2.507    -0.895    -0.836  0.1663  0.2954  0.9408
    23 Fe(57) Bbb     0.0251     0.434     0.155     0.145  0.2549  0.9087 -0.3304
              Bcc     0.1198     2.074     0.740     0.692  0.9526 -0.2948 -0.0758
 
              Baa    -0.3580    25.908     9.244     8.642  0.8347  0.5454 -0.0763
    24 O(17)  Bbb     0.1569   -11.352    -4.051    -3.787  0.2004 -0.1717  0.9646
              Bcc     0.2012   -14.556    -5.194    -4.855 -0.5130  0.8204  0.2526
 
              Baa    -0.0675    -9.056    -3.231    -3.021  0.6011 -0.4322  0.6722
    25 C(13)  Bbb     0.0100     1.345     0.480     0.449  0.3178  0.9010  0.2952
              Bcc     0.0575     7.711     2.751     2.572  0.7333 -0.0362 -0.6789
 
              Baa    -0.0262   -13.957    -4.980    -4.656  0.6341 -0.3689  0.6796
    26 H(1)   Bbb    -0.0126    -6.703    -2.392    -2.236  0.4834  0.8751  0.0240
              Bcc     0.0387    20.660     7.372     6.891 -0.6035  0.3134  0.7332
 
              Baa    -0.0621    -8.328    -2.972    -2.778 -0.6756  0.2457  0.6951
    27 C(13)  Bbb     0.0099     1.334     0.476     0.445  0.1338  0.9680 -0.2122
              Bcc     0.0521     6.995     2.496     2.333  0.7250  0.0504  0.6869
 
              Baa    -0.0256   -13.680    -4.882    -4.563 -0.6389  0.2982  0.7091
    28 H(1)   Bbb    -0.0126    -6.743    -2.406    -2.249  0.4035  0.9147 -0.0211
              Bcc     0.0383    20.423     7.287     6.812  0.6549 -0.2727  0.7048
 
              Baa    -0.0139    -0.536    -0.191    -0.179  0.0957 -0.0052  0.9954
    29 N(14)  Bbb    -0.0098    -0.378    -0.135    -0.126  0.1872  0.9822 -0.0128
              Bcc     0.0237     0.914     0.326     0.305  0.9777 -0.1875 -0.0949
 
              Baa    -0.0177    -0.683    -0.244    -0.228 -0.0092  0.0566  0.9984
    30 N(14)  Bbb    -0.0120    -0.461    -0.165    -0.154  0.3109  0.9491 -0.0509
              Bcc     0.0297     1.145     0.408     0.382  0.9504 -0.3099  0.0263
 
              Baa    -2.1408   154.905    55.274    51.671  0.8415  0.5348 -0.0766
    31 O(17)  Bbb     1.0246   -74.137   -26.454   -24.729 -0.1304  0.3386  0.9318
              Bcc     1.1162   -80.768   -28.820   -26.941 -0.5243  0.7742 -0.3547
 

 ---------------------------------------------------------------------------------

 No NMR shielding tensors so no spin-rotation constants.
 Leave Link  601 at Sun Jan 22 10:21:55 2023, MaxMem= 14763950080 cpu:              18.9 elap:               9.8
 (Enter /software/commercial/gaussian/g16/AVX2/g16/l9999.exe)
 Unable to Open any file for archive entry.
 1\1\GINC-NODE1144\FOpt\UM06L\Gen\C6H6Fe3N2O14(15)\SVICCHI\22-Jan-2023\
 0\\#p opt=(cartesian,maxcycle=500) gen um06l int=grid=ultrafine scf=(x
 qc,intrep,maxconventionalcycle=150) pop=(hirshfeld) nosymm\\FeFeFe-B\\
 0,15\O,1.7135111199,-2.1437809696,-1.6383332206\O,-0.4751550363,-2.509
 2767213,-1.204899571\C,0.5845900168,-2.706089754,-1.8110961023\H,0.575
 2860607,-3.4660522849,-2.6109253639\O,1.9521725816,2.037445249,1.15712
 83814\O,3.1221255745,0.1146033041,1.1275926708\C,2.9002964171,1.296706
 1623,1.4946621375\H,3.6310239234,1.7237422487,2.2005233376\O,-2.117665
 6918,-0.096457253,-1.4538526285\O,2.6796554589,0.5121480773,-1.5708210
 777\O,1.3991903836,2.3631674786,-1.5313212905\C,2.3354441544,1.6459419
 929,-1.9677567496\H,2.9160228206,2.0723153475,-2.8018263778\O,-0.54018
 88608,-2.0968257057,1.7139494592\O,1.6473185235,-2.249057782,1.1705439
 065\C,0.6331887184,-2.472464176,1.8864349747\H,0.8150566626,-3.0887651
 976,2.7832032174\Fe,-1.3928641621,-1.133895481,0.1379538012\O,-2.09706
 41207,0.3751885592,1.4721865135\Fe,0.2506649586,1.813181335,0.02199515
 42\O,-0.8335228075,2.245842941,1.5931888596\O,-1.3407901876,2.00305033
 55,-1.1549787894\Fe,1.9552455326,-0.8403461041,-0.1999668331\O,0.28108
 78524,-0.0480226907,-0.013288224\C,-1.7759105789,1.4697254824,1.951195
 2333\H,-2.3714656958,1.8422622926,2.802192455\C,-2.0337835539,1.115627
 3964,-1.7232851779\H,-2.6495679203,1.4657366856,-2.5685400359\N,-5.493
 9309588,0.0519653308,0.5359388613\N,-4.8925397479,0.7680230885,-0.0337
 824217\O,-2.7501724063,-2.0034729557,0.2606551397\\Version=ES64L-G16Re
 vC.02\HF=-5186.8128527\S2=56.087784\S2-1=0.\S2A=56.000593\RMSD=3.671e-
 09\RMSF=2.084e-05\Dipole=1.4687255,0.9076721,-0.1356606\Quadrupole=-4.
 7497374,-1.9973583,6.7470956,-4.6411298,1.8176883,0.0380414\PG=C01 [X(
 C6H6Fe3N2O14)]\\@
 The archive entry for this job was punched.


 EXPERIENCE IS THE FRUIT OF THE TREE OF ERRORS.
 Job cpu time:       1 days 16 hours 17 minutes 48.5 seconds.
 Elapsed time:       0 days 20 hours 17 minutes 39.1 seconds.
 File lengths (MBytes):  RWF=    725 Int=      0 D2E=      0 Chk=     69 Scr=      1
 Normal termination of Gaussian 16 at Sun Jan 22 10:21:55 2023.
