 Entering Gaussian System, Link 0=g16
 Input=FeFeFe-B-0xH2O-counterpoise-opt.gjf
 Output=FeFeFe-B-0xH2O-counterpoise-opt.log
 AtFile(1): /zfs/curium/svicchi/00-MOF/01-Gaussian/zw-basis-set/def2-TZVP/H.gbs
            !----------------------------------------------------------------------
            ! Basis Set Exchange
            ! Version v0.9
            ! https://www.basissetexchange.org
            !----------------------------------------------------------------------
            !   Basis set: def2-TZVP
            ! Description: def2-TZVP
            !        Role: orbital
            !     Version: 1  (Data from Turbomole 7.3)
            !----------------------------------------------------------------------
            H     0
            S    3   1.00
                 34.0613410              0.60251978D-02
                  5.1235746              0.45021094D-01
                  1.1646626              0.20189726
            S    1   1.00
                  0.32723041             1.0000000
            S    1   1.00
                  0.10307241             1.0000000
            P    1   1.00
                  0.8000000              1.0000000
 AtFile(1): /zfs/curium/svicchi/00-MOF/01-Gaussian/zw-basis-set/def2-TZVP/O.gbs
            !----------------------------------------------------------------------
            ! Basis Set Exchange
            ! Version v0.9
            ! https://www.basissetexchange.org
            !----------------------------------------------------------------------
            !   Basis set: def2-TZVP
            ! Description: def2-TZVP
            !        Role: orbital
            !     Version: 1  (Data from Turbomole 7.3)
            !----------------------------------------------------------------------
            O     0
            S    6   1.00
              27032.3826310              0.21726302465D-03
               4052.3871392              0.16838662199D-02
                922.32722710             0.87395616265D-02
                261.24070989             0.35239968808D-01
                 85.354641351            0.11153519115
                 31.035035245            0.25588953961
            S    2   1.00
                 12.260860728            0.39768730901
                  4.9987076005           0.24627849430
            S    1   1.00
                  1.1703108158           1.0000000
            S    1   1.00
                  0.46474740994          1.0000000
            S    1   1.00
                  0.18504536357          1.0000000
            P    4   1.00
                 63.274954801            0.60685103418D-02
                 14.627049379            0.41912575824D-01
                  4.4501223456           0.16153841088
                  1.5275799647           0.35706951311
            P    1   1.00
                  0.52935117943           .44794207502
            P    1   1.00
                  0.17478421270           .24446069663
            D    1   1.00
                  2.31400000             1.0000000
            D    1   1.00
                  0.64500000             1.0000000
            F    1   1.00
                  1.42800000             1.0000000
 AtFile(1): /zfs/curium/svicchi/00-MOF/01-Gaussian/zw-basis-set/def2-TZVP/C.gbs
            !----------------------------------------------------------------------
            ! Basis Set Exchange
            ! Version v0.9
            ! https://www.basissetexchange.org
            !----------------------------------------------------------------------
            !   Basis set: def2-TZVP
            ! Description: def2-TZVP
            !        Role: orbital
            !     Version: 1  (Data from Turbomole 7.3)
            !----------------------------------------------------------------------
            C     0
            S    6   1.00
              13575.3496820              0.22245814352D-03
               2035.2333680              0.17232738252D-02
                463.22562359             0.89255715314D-02
                131.20019598             0.35727984502D-01
                 42.853015891            0.11076259931
                 15.584185766            0.24295627626
            S    2   1.00
                  6.2067138508           0.41440263448
                  2.5764896527           0.23744968655
            S    1   1.00
                  0.57696339419          1.0000000
            S    1   1.00
                  0.22972831358          1.0000000
            S    1   1.00
                  0.95164440028D-01      1.0000000
            P    4   1.00
                 34.697232244            0.53333657805D-02
                  7.9582622826           0.35864109092D-01
                  2.3780826883           0.14215873329
                  0.81433208183          0.34270471845
            P    1   1.00
                  0.28887547253           .46445822433
            P    1   1.00
                  0.10056823671           .24955789874
            D    1   1.00
                  1.09700000             1.0000000
            D    1   1.00
                  0.31800000             1.0000000
            F    1   1.00
                  0.76100000             1.0000000
 AtFile(1): /zfs/curium/svicchi/00-MOF/01-Gaussian/zw-basis-set/def2-TZVP/Fe.gbs
            !----------------------------------------------------------------------
            ! Basis Set Exchange
            ! Version v0.9
            ! https://www.basissetexchange.org
            !----------------------------------------------------------------------
            !   Basis set: def2-TZVP
            ! Description: def2-TZVP
            !        Role: orbital
            !     Version: 1  (Data from Turbomole 7.3)
            !----------------------------------------------------------------------
            Fe     0
            S    8   1.00
             300784.8463700              0.22806273096D-03
              45088.9705570              0.17681788761D-02
              10262.5163170              0.91927083490D-02
               2905.2897293              0.37355495807D-01
                946.11487137             0.12151108426
                339.87832894             0.28818881468
                131.94425588             0.41126612677
                 52.111494077            0.21518583573
            S    4   1.00
                329.48839267            -0.24745216477D-01
                101.92332739            -0.11683089050
                 16.240462745            0.55293621136
                  6.8840675801           0.53601640182
            S    2   1.00
                 10.470693782           -0.22912708577
                  1.7360039648           0.71159319984
            S    1   1.00
                  0.72577288979          1.0000000
            S    1   1.00
                  0.11595528203          1.0000000
            S    1   1.00
                  0.41968227746D-01      1.0000000
            P    6   1.00
               1585.3959970              0.23793960179D-02
                375.38006499             0.19253154755D-01
                120.31816501             0.90021836536D-01
                 44.788749031            0.25798172356
                 17.829278584            0.41492649744
                  7.2247153786           0.24207474784
            P    3   1.00
                 28.143219756           -0.29041755152D-01
                  3.8743241412           0.55312260343
                  1.5410752281           0.96771136842
            P    1   1.00
                  0.58285615250          1.0000000
            P    1   1.00
                  0.1349150              1.0000000
            D    4   1.00
                 61.996675034            0.11971972255D-01
                 17.873732552            0.73210135410D-01
                  6.2744782934           0.23103094314
                  2.3552337175           0.39910706494
            D    1   1.00
                  0.85432239901           .41391589765
            D    1   1.00
                  0.27869254413           .21909269782
            D    1   1.00
                  0.0910000              1.0000000
            F    1   1.00
                  1.5980000              1.0000000
 AtFile(1): /zfs/curium/svicchi/00-MOF/01-Gaussian/zw-basis-set/def2-TZVP/N.gbs
            !----------------------------------------------------------------------
            ! Basis Set Exchange
            ! Version v0.9
            ! https://www.basissetexchange.org
            !----------------------------------------------------------------------
            !   Basis set: def2-TZVP
            ! Description: def2-TZVP
            !        Role: orbital
            !     Version: 1  (Data from Turbomole 7.3)
            !----------------------------------------------------------------------
            N     0
            S    6   1.00
              19730.8006470              0.21887984991D-03
               2957.8958745              0.16960708803D-02
                673.22133595             0.87954603538D-02
                190.68249494             0.35359382605D-01
                 62.295441898            0.11095789217
                 22.654161182            0.24982972552
            S    2   1.00
                  8.9791477428           0.40623896148
                  3.6863002370           0.24338217176
            S    1   1.00
                  0.84660076805          1.0000000
            S    1   1.00
                  0.33647133771          1.0000000
            S    1   1.00
                  0.13647653675          1.0000000
            P    4   1.00
                 49.200380510            0.55552416751D-02
                 11.346790537            0.38052379723D-01
                  3.4273972411           0.14953671029
                  1.1785525134           0.34949305230
            P    1   1.00
                  0.41642204972           .45843153697
            P    1   1.00
                  0.14260826011           .24428771672
            D    1   1.00
                  1.65400000             1.0000000
            D    1   1.00
                  0.46900000             1.0000000
            F    1   1.00
                  1.09300000             1.0000000
 Initial command:
 /software/commercial/gaussian/g16/AVX2/g16/l1.exe "/scratch1/svicchi/G09-61865.pbs02/Gau-2891582.inp" -scrdir="/scratch1/svicchi/G09-61865.pbs02/"
 Entering Link 1 = /software/commercial/gaussian/g16/AVX2/g16/l1.exe PID=   2891583.
  
 Copyright (c) 1988-2021, Gaussian, Inc.  All Rights Reserved.
  
 This is part of the Gaussian(R) 16 program.  It is based on
 the Gaussian(R) 09 system (copyright 2009, Gaussian, Inc.),
 the Gaussian(R) 03 system (copyright 2003, Gaussian, Inc.),
 the Gaussian(R) 98 system (copyright 1998, Gaussian, Inc.),
 the Gaussian(R) 94 system (copyright 1995, Gaussian, Inc.),
 the Gaussian 92(TM) system (copyright 1992, Gaussian, Inc.),
 the Gaussian 90(TM) system (copyright 1990, Gaussian, Inc.),
 the Gaussian 88(TM) system (copyright 1988, Gaussian, Inc.),
 the Gaussian 86(TM) system (copyright 1986, Carnegie Mellon
 University), and the Gaussian 82(TM) system (copyright 1983,
 Carnegie Mellon University). Gaussian is a federally registered
 trademark of Gaussian, Inc.
  
 This software contains proprietary and confidential information,
 including trade secrets, belonging to Gaussian, Inc.
  
 This software is provided under written license and may be
 used, copied, transmitted, or stored only in accord with that
 written license.
  
 The following legend is applicable only to US Government
 contracts under FAR:
  
                    RESTRICTED RIGHTS LEGEND
  
 Use, reproduction and disclosure by the US Government is
 subject to restrictions as set forth in subparagraphs (a)
 and (c) of the Commercial Computer Software - Restricted
 Rights clause in FAR 52.227-19.
  
 Gaussian, Inc.
 340 Quinnipiac St., Bldg. 40, Wallingford CT 06492
  
  
 ---------------------------------------------------------------
 Warning -- This program may not be used in any manner that
 competes with the business of Gaussian, Inc. or will provide
 assistance to any competitor of Gaussian, Inc.  The licensee
 of this program is prohibited from giving any competitor of
 Gaussian, Inc. access to this program.  By using this program,
 the user acknowledges that Gaussian, Inc. is engaged in the
 business of creating and licensing software in the field of
 computational chemistry and represents and warrants to the
 licensee that it is not a competitor of Gaussian, Inc. and that
 it will not use this program in any manner prohibited above.
 ---------------------------------------------------------------
  

 Cite this work as:
 Gaussian 16, Revision C.02,
 M. J. Frisch, G. W. Trucks, H. B. Schlegel, G. E. Scuseria, 
 M. A. Robb, J. R. Cheeseman, G. Scalmani, V. Barone, 
 G. A. Petersson, H. Nakatsuji, X. Li, M. Caricato, A. V. Marenich, 
 J. Bloino, B. G. Janesko, R. Gomperts, B. Mennucci, H. P. Hratchian, 
 J. V. Ortiz, A. F. Izmaylov, J. L. Sonnenberg, D. Williams-Young, 
 F. Ding, F. Lipparini, F. Egidi, J. Goings, B. Peng, A. Petrone, 
 T. Henderson, D. Ranasinghe, V. G. Zakrzewski, J. Gao, N. Rega, 
 G. Zheng, W. Liang, M. Hada, M. Ehara, K. Toyota, R. Fukuda, 
 J. Hasegawa, M. Ishida, T. Nakajima, Y. Honda, O. Kitao, H. Nakai, 
 T. Vreven, K. Throssell, J. A. Montgomery, Jr., J. E. Peralta, 
 F. Ogliaro, M. J. Bearpark, J. J. Heyd, E. N. Brothers, K. N. Kudin, 
 V. N. Staroverov, T. A. Keith, R. Kobayashi, J. Normand, 
 K. Raghavachari, A. P. Rendell, J. C. Burant, S. S. Iyengar, 
 J. Tomasi, M. Cossi, J. M. Millam, M. Klene, C. Adamo, R. Cammi, 
 J. W. Ochterski, R. L. Martin, K. Morokuma, O. Farkas, 
 J. B. Foresman, and D. J. Fox, Gaussian, Inc., Wallingford CT, 2019.
 
 ******************************************
 Gaussian 16:  ES64L-G16RevC.02  7-Dec-2021
                24-Jan-2023 
 ******************************************
 %NProcShared=2
 Will use up to    2 processors via shared memory.
 %mem=110gb
 %chk=/scratch1/svicchi/G09-61865.pbs02/00-opt/FeFeFe-B-0xH2O-counterpoise-opt.ch
 k
 ----------------------------------------------------------------------
 #p gen um06l int=grid=ultrafine scf=(xqc,intrep,maxconventionalcycle=1
 50) pop=(hirshfeld) nosymm counterpoise=2
 ----------------------------------------------------------------------
 1/38=1,62=2,172=1/1;
 2/12=2,15=1,17=6,18=5,40=1/2;
 1/38=1,53=2,62=2,63=1/22;
 3/5=7,11=2,25=1,30=1,74=-53,75=-5,116=2/1,2,3;
 4//1;
 5/5=2,8=3,13=1,17=20,38=5,85=150/2,8;
 6/7=2,8=2,9=2,10=2,28=1,79=1/1;
 1/53=2,62=2,63=1/22;
 3/5=7,6=11,11=2,25=1,30=1,74=-53,75=-5,82=7,116=2/1,2,3;
 4//1;
 5/5=2,8=3,13=1,17=20,38=5,85=150/2,8;
 6/7=2,8=2,9=2,10=2,28=1,79=1/1;
 1/53=2,62=2,63=1/22(-4);
 99/5=1,9=1/99;
 Leave Link    1 at Tue Jan 24 08:51:52 2023, MaxMem= 14763950080 cpu:               0.0 elap:               0.1
 (Enter /software/commercial/gaussian/g16/AVX2/g16/l101.exe)
 ---------------------
 FeFeFe-B-counterpoise
 ---------------------
 Symbolic Z-matrix:
 Charge =  0 Multiplicity =15 in supermolecule
 Charge =  0 Multiplicity =15 in fragment      1.
 Charge =  0 Multiplicity = 1 in fragment      2.
 O(fragment=1)         1.71351  -2.14378  -1.63833 
 O(fragment=1)        -0.47516  -2.50928  -1.2049 
 C(fragment=1)         0.58459  -2.70609  -1.8111 
 H(fragment=1)         0.57529  -3.46605  -2.61093 
 O(fragment=1)         1.95217   2.03744   1.15713 
 O(fragment=1)         3.12213   0.1146    1.12759 
 C(fragment=1)         2.9003    1.29671   1.49466 
 H(fragment=1)         3.63102   1.72374   2.20052 
 O(fragment=1)        -2.11767  -0.09646  -1.45385 
 O(fragment=1)         2.67966   0.51215  -1.57082 
 O(fragment=1)         1.39919   2.36317  -1.53132 
 C(fragment=1)         2.33544   1.64594  -1.96776 
 H(fragment=1)         2.91602   2.07232  -2.80183 
 O(fragment=1)        -0.54019  -2.09683   1.71395 
 O(fragment=1)         1.64732  -2.24906   1.17054 
 C(fragment=1)         0.63319  -2.47246   1.88644 
 H(fragment=1)         0.81506  -3.08876   2.7832 
 Fe(fragment=1)       -1.39286  -1.1339    0.13795 
 O(fragment=1)        -2.09706   0.37519   1.47219 
 Fe(fragment=1)        0.25067   1.81318   0.022 
 O(fragment=1)        -0.83352   2.24584   1.59319 
 O(fragment=1)        -1.34079   2.00305  -1.15498 
 Fe(fragment=1)        1.95525  -0.84035  -0.19997 
 O(fragment=1)         0.28109  -0.04802  -0.01329 
 C(fragment=1)        -1.77591   1.46973   1.9512 
 H(fragment=1)        -2.37147   1.84226   2.80219 
 C(fragment=1)        -2.03378   1.11563  -1.72329 
 H(fragment=1)        -2.64957   1.46574  -2.56854 
 N(fragment=2)        -5.49393   0.05197   0.53594 
 N(fragment=2)        -4.89254   0.76802  -0.03378 
 O(fragment=1)        -2.75017  -2.00347   0.26066 
 
 ITRead=  0  0  0  0  0  0  0  0  0  0  0  0  0  0  0  0  0  0  0  0
 ITRead=  0  0  0  0  0  0  0  0  0  0  0
 MicOpt= -1 -1 -1 -1 -1 -1 -1 -1 -1 -1 -1 -1 -1 -1 -1 -1 -1 -1 -1 -1
 MicOpt= -1 -1 -1 -1 -1 -1 -1 -1 -1 -1 -1
 NAtoms=     31 NQM=       31 NQMF=       0 NMMI=      0 NMMIF=      0
                NMic=       0 NMicF=      0.
                    Isotopes and Nuclear Properties:
 (Nuclear quadrupole moments (NQMom) in fm**2, nuclear magnetic moments (NMagM)
  in nuclear magnetons)

  Atom         1           2           3           4           5           6           7           8           9          10
 IAtWgt=          16          16          12           1          16          16          12           1          16          16
 AtmWgt=  15.9949146  15.9949146  12.0000000   1.0078250  15.9949146  15.9949146  12.0000000   1.0078250  15.9949146  15.9949146
 NucSpn=           0           0           0           1           0           0           0           1           0           0
 AtZEff=  -0.0000000  -0.0000000  -0.0000000  -0.0000000  -0.0000000  -0.0000000  -0.0000000  -0.0000000  -0.0000000  -0.0000000
 NQMom=    0.0000000   0.0000000   0.0000000   0.0000000   0.0000000   0.0000000   0.0000000   0.0000000   0.0000000   0.0000000
 NMagM=    0.0000000   0.0000000   0.0000000   2.7928460   0.0000000   0.0000000   0.0000000   2.7928460   0.0000000   0.0000000
 AtZNuc=   8.0000000   8.0000000   6.0000000   1.0000000   8.0000000   8.0000000   6.0000000   1.0000000   8.0000000   8.0000000

  Atom        11          12          13          14          15          16          17          18          19          20
 IAtWgt=          16          12           1          16          16          12           1          56          16          56
 AtmWgt=  15.9949146  12.0000000   1.0078250  15.9949146  15.9949146  12.0000000   1.0078250  55.9349393  15.9949146  55.9349393
 NucSpn=           0           0           1           0           0           0           1           0           0           0
 AtZEff=  -0.0000000  -0.0000000  -0.0000000  -0.0000000  -0.0000000  -0.0000000  -0.0000000  -0.0000000  -0.0000000  -0.0000000
 NQMom=    0.0000000   0.0000000   0.0000000   0.0000000   0.0000000   0.0000000   0.0000000   0.0000000   0.0000000   0.0000000
 NMagM=    0.0000000   0.0000000   2.7928460   0.0000000   0.0000000   0.0000000   2.7928460   0.0000000   0.0000000   0.0000000
 AtZNuc=   8.0000000   6.0000000   1.0000000   8.0000000   8.0000000   6.0000000   1.0000000  26.0000000   8.0000000  26.0000000

  Atom        21          22          23          24          25          26          27          28          29          30
 IAtWgt=          16          16          56          16          12           1          12           1          14          14
 AtmWgt=  15.9949146  15.9949146  55.9349393  15.9949146  12.0000000   1.0078250  12.0000000   1.0078250  14.0030740  14.0030740
 NucSpn=           0           0           0           0           0           1           0           1           2           2
 AtZEff=  -0.0000000  -0.0000000  -0.0000000  -0.0000000  -0.0000000  -0.0000000  -0.0000000  -0.0000000  -0.0000000  -0.0000000
 NQMom=    0.0000000   0.0000000   0.0000000   0.0000000   0.0000000   0.0000000   0.0000000   0.0000000   2.0440000   2.0440000
 NMagM=    0.0000000   0.0000000   0.0000000   0.0000000   0.0000000   2.7928460   0.0000000   2.7928460   0.4037610   0.4037610
 AtZNuc=   8.0000000   8.0000000  26.0000000   8.0000000   6.0000000   1.0000000   6.0000000   1.0000000   7.0000000   7.0000000

  Atom        31
 IAtWgt=          16
 AtmWgt=  15.9949146
 NucSpn=           0
 AtZEff=  -0.0000000
 NQMom=    0.0000000
 NMagM=    0.0000000
 AtZNuc=   8.0000000
 Leave Link  101 at Tue Jan 24 08:51:52 2023, MaxMem= 14763950080 cpu:               0.1 elap:               0.1
 (Enter /software/commercial/gaussian/g16/AVX2/g16/l202.exe)
                          Input orientation:                          
 ---------------------------------------------------------------------
 Center     Atomic      Atomic             Coordinates (Angstroms)
 Number     Number       Type             X           Y           Z
 ---------------------------------------------------------------------
      1          8           0        1.713511   -2.143781   -1.638333
      2          8           0       -0.475155   -2.509277   -1.204900
      3          6           0        0.584590   -2.706090   -1.811096
      4          1           0        0.575286   -3.466052   -2.610925
      5          8           0        1.952173    2.037445    1.157128
      6          8           0        3.122126    0.114603    1.127593
      7          6           0        2.900296    1.296706    1.494662
      8          1           0        3.631024    1.723742    2.200523
      9          8           0       -2.117666   -0.096457   -1.453853
     10          8           0        2.679655    0.512148   -1.570821
     11          8           0        1.399190    2.363167   -1.531321
     12          6           0        2.335444    1.645942   -1.967757
     13          1           0        2.916023    2.072315   -2.801826
     14          8           0       -0.540189   -2.096826    1.713949
     15          8           0        1.647319   -2.249058    1.170544
     16          6           0        0.633189   -2.472464    1.886435
     17          1           0        0.815057   -3.088765    2.783203
     18         26           0       -1.392864   -1.133895    0.137954
     19          8           0       -2.097064    0.375189    1.472187
     20         26           0        0.250665    1.813181    0.021995
     21          8           0       -0.833523    2.245843    1.593189
     22          8           0       -1.340790    2.003050   -1.154979
     23         26           0        1.955246   -0.840346   -0.199967
     24          8           0        0.281088   -0.048023   -0.013288
     25          6           0       -1.775911    1.469725    1.951195
     26          1           0       -2.371466    1.842262    2.802192
     27          6           0       -2.033784    1.115627   -1.723285
     28          1           0       -2.649568    1.465737   -2.568540
     29          7           0       -5.493931    0.051965    0.535939
     30          7           0       -4.892540    0.768023   -0.033782
     31          8           0       -2.750172   -2.003473    0.260655
 ---------------------------------------------------------------------
                    Distance matrix (angstroms):
                    1          2          3          4          5
     1  O    0.000000
     2  O    2.260909   0.000000
     3  C    1.272989   1.236636   0.000000
     4  H    1.997471   1.998937   1.103338   0.000000
     5  O    5.035297   5.669548   5.760361   6.810471   0.000000
     6  O    3.838599   5.026500   4.799093   5.769229   2.250996
     7  C    4.802194   5.759063   5.684444   6.704132   1.249624
     8  H    5.776799   6.809997   6.708000   7.708536   2.001405
     9  O    4.347814   2.929423   3.773592   4.465980   5.285296
    10  O    2.827004   4.383575   3.847608   4.619119   3.208967
    11  O    4.519162   5.230720   5.141908   5.985328   2.763990
    12  C    3.854520   5.074176   4.693636   5.444658   3.172551
    13  H    4.535991   5.919565   5.408353   6.015730   4.074744
    14  O    4.039698   2.948563   3.749970   4.671574   4.859436
    15  O    2.811628   3.196145   3.198195   4.114588   4.297351
    16  C    3.701232   3.284225   3.705223   4.606172   4.755091
    17  H    4.609793   4.231480   4.615966   5.412620   5.496834
    18  Fe   3.718149   2.130052   3.190755   4.107177   4.720740
    19  O    5.526394   4.256469   5.240753   6.210345   4.388471
    20  Fe   4.533669   4.551454   4.888306   5.908295   2.057657
    21  O    6.016553   5.528915   6.174289   7.230841   2.827310
    22  O    5.172871   4.594879   5.129676   5.975132   4.023758
    23  Fe   1.956087   3.114815   2.820538   3.822478   3.181729
    24  O    3.014102   2.837184   3.223282   4.303161   2.917460
    25  C    6.173994   5.242648   6.096247   7.120601   3.853759
    26  H    7.231448   6.211978   7.120969   8.134088   4.630139
    27  C    4.967210   3.979696   4.633478   5.346675   5.003437
    28  H    5.738498   4.731630   5.332695   5.892709   5.948401
    29  N    7.841937   5.897338   7.075582   7.688601   7.731266
    30  N    7.395478   5.623656   6.725122   7.380120   7.062563
    31  O    4.852866   2.753069   3.988290   4.630743   6.264561
                    6          7          8          9         10
     6  O    0.000000
     7  C    1.257504   0.000000
     8  H    1.999871   1.102072   0.000000
     9  O    5.844983   5.984529   7.050888   0.000000
    10  O    2.763198   3.171971   4.073831   4.837186   0.000000
    11  O    3.885148   3.542207   4.395066   4.292322   2.251094
    12  C    3.541901   3.525531   4.365677   4.809391   1.249611
    13  H    4.394934   4.365962   5.065197   5.644345   2.001341
    14  O    4.318192   4.837467   5.677368   4.065080   5.288086
    15  O    2.786359   3.774579   4.558408   5.069148   4.025551
    16  C    3.669273   4.415869   5.166605   4.936612   5.004853
    17  H    4.280792   5.024034   5.606194   5.958810   5.949859
    18  Fe   4.787825   5.116610   6.136752   2.033584   4.713256
    19  O    5.237041   5.081664   5.929592   2.963880   5.665307
    20  Fe   3.514655   3.075067   4.022538   3.381396   3.182726
    21  O    4.517314   3.853826   4.535816   4.052142   5.035780
    22  O    5.356677   5.050379   6.004693   2.258493   4.308096
    23  Fe   2.008968   2.886499   3.891675   4.325993   2.057486
    24  O    3.065869   3.307939   4.388870   2.798499   2.914245
    25  C    5.148344   4.701624   5.418638   3.763519   5.759654
    26  H    5.997386   5.458822   6.033733   4.683691   6.812215
    27  C    5.976032   5.893481   6.917812   1.244499   4.754360
    28  H    6.985658   6.880347   7.890270   1.991456   5.505033
    29  N    8.636574   8.539999   9.424992   3.921794   8.453266
    30  N    8.124692   7.958891   8.863220   3.234788   7.730854
    31  O    6.302516   6.658960   7.640346   2.641271   6.258249
                   11         12         13         14         15
    11  O    0.000000
    12  C    1.257561   0.000000
    13  H    1.999890   1.102060   0.000000
    14  O    5.846752   5.986028   7.051196   0.000000
    15  O    5.351099   5.049106   6.005297   2.259127   0.000000
    16  C    5.970858   5.891836   6.917090   1.244054   1.261297
    17  H    6.977098   6.877547   7.889446   1.990964   1.999609
    18  Fe   4.776137   5.105075   6.122793   2.034220   3.398903
    19  O    5.019652   5.752839   6.802828   2.931410   4.582365
    20  Fe   2.008578   2.886760   3.891690   4.333164   4.446526
    21  O    3.842048   4.804432   5.779737   4.354240   5.151441
    22  O    2.789051   3.781908   4.564796   5.067612   5.693617
    23  Fe   3.513431   3.074290   4.021984   3.386593   1.989369
    24  O    3.060786   3.303005   4.383453   2.802755   2.848263
    25  C    4.796605   5.682647   6.705861   3.782007   5.114418
    26  H    5.767887   6.704175   7.708144   4.478199   5.962534
    27  C    3.657665   4.408078   5.155491   4.936118   5.765923
    28  H    4.274768   5.024317   5.603406   5.956597   6.800271
    29  N    7.558461   8.373074   9.270912   5.526714   7.529600
    30  N    6.661304   7.533575   8.386710   5.495897   7.302255
    31  O    6.284579   6.644362   7.622113   2.646659   4.497348
                   16         17         18         19         20
    16  C    0.000000
    17  H    1.103221   0.000000
    18  Fe   2.992297   3.961537   0.000000
    19  O    3.966738   4.711495   2.133872   0.000000
    20  Fe   4.689266   5.654368   3.376372   3.111705   0.000000
    21  O    4.949713   5.708940   3.721989   2.260647   1.957373
    22  O    5.759949   6.788485   3.393348   3.181805   1.988479
    23  Fe   2.960527   3.905729   3.377899   4.549158   3.161656
    24  O    3.100135   4.165525   2.001027   2.835728   1.861787
    25  C    4.620477   5.308972   3.195842   1.237173   2.819004
    26  H    5.336986   5.871058   4.112583   1.999128   3.821768
    27  C    5.746061   6.789789   2.989204   3.280746   2.958258
    28  H    6.792107   7.835067   3.957588   4.221615   3.904221
    29  N    6.763001   7.397142   4.287587   3.538324   6.030456
    30  N    6.687426   7.442236   3.986793   3.199523   5.248621
    31  O    3.782888   4.500218   1.616634   2.748162   4.860949
                   21         22         23         24         25
    21  O    0.000000
    22  O    2.805120   0.000000
    23  Fe   4.529592   4.456546   0.000000
    24  O    3.014125   2.853217   1.861566   0.000000
    25  C    1.272251   3.181522   4.887275   3.223972   0.000000
    26  H    1.997457   4.092352   5.910142   4.305363   1.103479
    27  C    3.703649   1.261242   4.696668   3.104320   3.700498
    28  H    4.607231   1.999940   5.668551   4.172472   4.603401
    29  N    5.258353   4.890247   7.538436   5.801939   4.223348
    30  N    4.615908   3.923940   7.036096   5.237631   3.761103
    31  O    4.848286   4.476897   4.868880   3.617647   3.983744
                   26         27         28         29         30
    26  H    0.000000
    27  C    4.595864   0.000000
    28  H    5.391092   1.102825   0.000000
    29  N    4.253334   4.267094   4.441502   0.000000
    30  N    3.943672   3.338822   3.455825   1.094985   0.000000
    31  O    4.625203   3.765370   4.477710   3.439305   3.515341
                   31
    31  O    0.000000
 Symmetry turned off by external request.
 Stoichiometry    C6H6Fe3N2O14(15)
 Framework group  C1[X(C6H6Fe3N2O14)]
 Deg. of freedom    87
 Full point group                 C1      NOp   1
 Rotational constants (GHZ):           0.2588995           0.1792667           0.1467270
 Leave Link  202 at Tue Jan 24 08:51:53 2023, MaxMem= 14763950080 cpu:               0.0 elap:               0.1
 (Enter /software/commercial/gaussian/g16/AVX2/g16/l122.exe)
 Counterpoise: doing full-system calculation.
 Leave Link  122 at Tue Jan 24 08:51:53 2023, MaxMem= 14763950080 cpu:               0.0 elap:               0.1
 (Enter /software/commercial/gaussian/g16/AVX2/g16/l301.exe)
 General basis read from cards:  (5D, 7F)
 Centers:       4      8     13     17     26     28
 S 3 1.00
     Exponent=  3.4061341000D+01 Coefficients=  6.0251978000D-03
     Exponent=  5.1235746000D+00 Coefficients=  4.5021094000D-02
     Exponent=  1.1646626000D+00 Coefficients=  2.0189726000D-01
 S 1 1.00
     Exponent=  3.2723041000D-01 Coefficients=  1.0000000000D+00
 S 1 1.00
     Exponent=  1.0307241000D-01 Coefficients=  1.0000000000D+00
 P 1 1.00
     Exponent=  8.0000000000D-01 Coefficients=  1.0000000000D+00
 ****
 Centers:       1      2      5      6      9     10     11     14     15     19
 Centers:      21     22     24     31
 S 6 1.00
     Exponent=  2.7032382631D+04 Coefficients=  2.1726302465D-04
     Exponent=  4.0523871392D+03 Coefficients=  1.6838662199D-03
     Exponent=  9.2232722710D+02 Coefficients=  8.7395616265D-03
     Exponent=  2.6124070989D+02 Coefficients=  3.5239968808D-02
     Exponent=  8.5354641351D+01 Coefficients=  1.1153519115D-01
     Exponent=  3.1035035245D+01 Coefficients=  2.5588953961D-01
 S 2 1.00
     Exponent=  1.2260860728D+01 Coefficients=  3.9768730901D-01
     Exponent=  4.9987076005D+00 Coefficients=  2.4627849430D-01
 S 1 1.00
     Exponent=  1.1703108158D+00 Coefficients=  1.0000000000D+00
 S 1 1.00
     Exponent=  4.6474740994D-01 Coefficients=  1.0000000000D+00
 S 1 1.00
     Exponent=  1.8504536357D-01 Coefficients=  1.0000000000D+00
 P 4 1.00
     Exponent=  6.3274954801D+01 Coefficients=  6.0685103418D-03
     Exponent=  1.4627049379D+01 Coefficients=  4.1912575824D-02
     Exponent=  4.4501223456D+00 Coefficients=  1.6153841088D-01
     Exponent=  1.5275799647D+00 Coefficients=  3.5706951311D-01
 P 1 1.00
     Exponent=  5.2935117943D-01 Coefficients=  4.4794207502D-01
 P 1 1.00
     Exponent=  1.7478421270D-01 Coefficients=  2.4446069663D-01
 D 1 1.00
     Exponent=  2.3140000000D+00 Coefficients=  1.0000000000D+00
 D 1 1.00
     Exponent=  6.4500000000D-01 Coefficients=  1.0000000000D+00
 F 1 1.00
     Exponent=  1.4280000000D+00 Coefficients=  1.0000000000D+00
 ****
 Centers:       3      7     12     16     25     27
 S 6 1.00
     Exponent=  1.3575349682D+04 Coefficients=  2.2245814352D-04
     Exponent=  2.0352333680D+03 Coefficients=  1.7232738252D-03
     Exponent=  4.6322562359D+02 Coefficients=  8.9255715314D-03
     Exponent=  1.3120019598D+02 Coefficients=  3.5727984502D-02
     Exponent=  4.2853015891D+01 Coefficients=  1.1076259931D-01
     Exponent=  1.5584185766D+01 Coefficients=  2.4295627626D-01
 S 2 1.00
     Exponent=  6.2067138508D+00 Coefficients=  4.1440263448D-01
     Exponent=  2.5764896527D+00 Coefficients=  2.3744968655D-01
 S 1 1.00
     Exponent=  5.7696339419D-01 Coefficients=  1.0000000000D+00
 S 1 1.00
     Exponent=  2.2972831358D-01 Coefficients=  1.0000000000D+00
 S 1 1.00
     Exponent=  9.5164440028D-02 Coefficients=  1.0000000000D+00
 P 4 1.00
     Exponent=  3.4697232244D+01 Coefficients=  5.3333657805D-03
     Exponent=  7.9582622826D+00 Coefficients=  3.5864109092D-02
     Exponent=  2.3780826883D+00 Coefficients=  1.4215873329D-01
     Exponent=  8.1433208183D-01 Coefficients=  3.4270471845D-01
 P 1 1.00
     Exponent=  2.8887547253D-01 Coefficients=  4.6445822433D-01
 P 1 1.00
     Exponent=  1.0056823671D-01 Coefficients=  2.4955789874D-01
 D 1 1.00
     Exponent=  1.0970000000D+00 Coefficients=  1.0000000000D+00
 D 1 1.00
     Exponent=  3.1800000000D-01 Coefficients=  1.0000000000D+00
 F 1 1.00
     Exponent=  7.6100000000D-01 Coefficients=  1.0000000000D+00
 ****
 Centers:      18     20     23
 S 8 1.00
     Exponent=  3.0078484637D+05 Coefficients=  2.2806273096D-04
     Exponent=  4.5088970557D+04 Coefficients=  1.7681788761D-03
     Exponent=  1.0262516317D+04 Coefficients=  9.1927083490D-03
     Exponent=  2.9052897293D+03 Coefficients=  3.7355495807D-02
     Exponent=  9.4611487137D+02 Coefficients=  1.2151108426D-01
     Exponent=  3.3987832894D+02 Coefficients=  2.8818881468D-01
     Exponent=  1.3194425588D+02 Coefficients=  4.1126612677D-01
     Exponent=  5.2111494077D+01 Coefficients=  2.1518583573D-01
 S 4 1.00
     Exponent=  3.2948839267D+02 Coefficients= -2.4745216477D-02
     Exponent=  1.0192332739D+02 Coefficients= -1.1683089050D-01
     Exponent=  1.6240462745D+01 Coefficients=  5.5293621136D-01
     Exponent=  6.8840675801D+00 Coefficients=  5.3601640182D-01
 S 2 1.00
     Exponent=  1.0470693782D+01 Coefficients= -2.2912708577D-01
     Exponent=  1.7360039648D+00 Coefficients=  7.1159319984D-01
 S 1 1.00
     Exponent=  7.2577288979D-01 Coefficients=  1.0000000000D+00
 S 1 1.00
     Exponent=  1.1595528203D-01 Coefficients=  1.0000000000D+00
 S 1 1.00
     Exponent=  4.1968227746D-02 Coefficients=  1.0000000000D+00
 P 6 1.00
     Exponent=  1.5853959970D+03 Coefficients=  2.3793960179D-03
     Exponent=  3.7538006499D+02 Coefficients=  1.9253154755D-02
     Exponent=  1.2031816501D+02 Coefficients=  9.0021836536D-02
     Exponent=  4.4788749031D+01 Coefficients=  2.5798172356D-01
     Exponent=  1.7829278584D+01 Coefficients=  4.1492649744D-01
     Exponent=  7.2247153786D+00 Coefficients=  2.4207474784D-01
 P 3 1.00
     Exponent=  2.8143219756D+01 Coefficients= -2.9041755152D-02
     Exponent=  3.8743241412D+00 Coefficients=  5.5312260343D-01
     Exponent=  1.5410752281D+00 Coefficients=  9.6771136842D-01
 P 1 1.00
     Exponent=  5.8285615250D-01 Coefficients=  1.0000000000D+00
 P 1 1.00
     Exponent=  1.3491500000D-01 Coefficients=  1.0000000000D+00
 D 4 1.00
     Exponent=  6.1996675034D+01 Coefficients=  1.1971972255D-02
     Exponent=  1.7873732552D+01 Coefficients=  7.3210135410D-02
     Exponent=  6.2744782934D+00 Coefficients=  2.3103094314D-01
     Exponent=  2.3552337175D+00 Coefficients=  3.9910706494D-01
 D 1 1.00
     Exponent=  8.5432239901D-01 Coefficients=  4.1391589765D-01
 D 1 1.00
     Exponent=  2.7869254413D-01 Coefficients=  2.1909269782D-01
 D 1 1.00
     Exponent=  9.1000000000D-02 Coefficients=  1.0000000000D+00
 F 1 1.00
     Exponent=  1.5980000000D+00 Coefficients=  1.0000000000D+00
 ****
 Centers:      29     30
 S 6 1.00
     Exponent=  1.9730800647D+04 Coefficients=  2.1887984991D-04
     Exponent=  2.9578958745D+03 Coefficients=  1.6960708803D-03
     Exponent=  6.7322133595D+02 Coefficients=  8.7954603538D-03
     Exponent=  1.9068249494D+02 Coefficients=  3.5359382605D-02
     Exponent=  6.2295441898D+01 Coefficients=  1.1095789217D-01
     Exponent=  2.2654161182D+01 Coefficients=  2.4982972552D-01
 S 2 1.00
     Exponent=  8.9791477428D+00 Coefficients=  4.0623896148D-01
     Exponent=  3.6863002370D+00 Coefficients=  2.4338217176D-01
 S 1 1.00
     Exponent=  8.4660076805D-01 Coefficients=  1.0000000000D+00
 S 1 1.00
     Exponent=  3.3647133771D-01 Coefficients=  1.0000000000D+00
 S 1 1.00
     Exponent=  1.3647653675D-01 Coefficients=  1.0000000000D+00
 P 4 1.00
     Exponent=  4.9200380510D+01 Coefficients=  5.5552416751D-03
     Exponent=  1.1346790537D+01 Coefficients=  3.8052379723D-02
     Exponent=  3.4273972411D+00 Coefficients=  1.4953671029D-01
     Exponent=  1.1785525134D+00 Coefficients=  3.4949305230D-01
 P 1 1.00
     Exponent=  4.1642204972D-01 Coefficients=  4.5843153697D-01
 P 1 1.00
     Exponent=  1.4260826011D-01 Coefficients=  2.4428771672D-01
 D 1 1.00
     Exponent=  1.6540000000D+00 Coefficients=  1.0000000000D+00
 D 1 1.00
     Exponent=  4.6900000000D-01 Coefficients=  1.0000000000D+00
 F 1 1.00
     Exponent=  1.0930000000D+00 Coefficients=  1.0000000000D+00
 ****
 Ernie: Thresh=  0.10000D-02 Tol=  0.10000D-05 Strict=F.
   853 basis functions,  1476 primitive gaussians,   984 cartesian basis functions
   130 alpha electrons      116 beta electrons
       nuclear repulsion energy      4458.1112091673 Hartrees.
 IExCor= 4134 DFT=T Ex+Corr=M06L ExCW=0 ScaHFX=  0.000000
 ScaDFX=  1.000000  1.000000  1.000000  1.000000 ScalE2=  1.000000  1.000000
 IRadAn=      5 IRanWt=     -1 IRanGd=            0 ICorTp=0 IEmpDi=  4
 NAtoms=   31 NActive=   31 NUniq=   31 SFac= 1.00D+00 NAtFMM=   60 NAOKFM=F Big=F
 Integral buffers will be    131072 words long.
 Raffenetti 2 integral format.
 Two-electron integral symmetry is turned off.
 Leave Link  301 at Tue Jan 24 08:51:53 2023, MaxMem= 14763950080 cpu:               0.1 elap:               0.1
 (Enter /software/commercial/gaussian/g16/AVX2/g16/l302.exe)
 NPDir=0 NMtPBC=     1 NCelOv=     1 NCel=       1 NClECP=     1 NCelD=      1
         NCelK=      1 NCelE2=     1 NClLst=     1 CellRange=     0.0.
 One-electron integrals computed using PRISM.
 NBasis=   853 RedAO= T EigKep=  2.02D-04  NBF=   853
 NBsUse=   853 1.00D-06 EigRej= -1.00D+00 NBFU=   853
 Precomputing XC quadrature grid using
 IXCGrd= 4 IRadAn=           5 IRanWt=          -1 IRanGd=           0 AccXCQ= 0.00D+00.
 Generated NRdTot=       0 NPtTot=           0 NUsed=           0 NTot=          32
 NSgBfM=   966   966   966   966   966 MxSgAt=    31 MxSgA2=    31.
 Leave Link  302 at Tue Jan 24 08:51:55 2023, MaxMem= 14763950080 cpu:               2.3 elap:               1.6
 (Enter /software/commercial/gaussian/g16/AVX2/g16/l303.exe)
 DipDrv:  MaxL=1.
 Leave Link  303 at Tue Jan 24 08:51:56 2023, MaxMem= 14763950080 cpu:               0.2 elap:               0.2
 (Enter /software/commercial/gaussian/g16/AVX2/g16/l401.exe)
 ExpMin= 4.20D-02 ExpMax= 3.01D+05 ExpMxC= 2.91D+03 IAcc=3 IRadAn=         5 AccDes= 0.00D+00
 Harris functional with IExCor= 1009 and IRadAn=       5 diagonalized for initial guess.
 HarFok:  IExCor= 1009 AccDes= 0.00D+00 IRadAn=         5 IDoV= 1 UseB2=F ITyADJ=14
 ICtDFT=  3500011 ScaDFX=  1.000000  1.000000  1.000000  1.000000
 FoFCou: FMM=F IPFlag=           0 FMFlag=      100000 FMFlg1=           0
         NFxFlg=           0 DoJE=T BraDBF=F KetDBF=T FulRan=T
         wScrn=  0.000000 ICntrl=       500 IOpCl=  0 I1Cent=   200000004 NGrid=           0
         NMat0=    1 NMatS0=      1 NMatT0=    0 NMatD0=    1 NMtDS0=    0 NMtDT0=    0
 Symmetry not used in FoFCou.
 Harris En= -5184.63019432417    
 JPrj=0 DoOrth=F DoCkMO=F.
 Initial guess <Sx>= 0.0000 <Sy>= 0.0000 <Sz>= 7.0000 <S**2>=56.0000 S= 7.0000
 Leave Link  401 at Tue Jan 24 08:52:10 2023, MaxMem= 14763950080 cpu:              27.2 elap:              14.0
 (Enter /software/commercial/gaussian/g16/AVX2/g16/l502.exe)
 Two-electron integral symmetry not used.
 UHF open shell SCF:
 Using DIIS extrapolation, IDIIS=  1040.
 NGot= 14763950080 LenX= 14762000842 LenY= 14761031602
 Requested convergence on RMS density matrix=1.00D-08 within 150 cycles.
 Requested convergence on MAX density matrix=1.00D-06.
 Requested convergence on             energy=1.00D-06.
 No special actions if energy rises.
 Fock matrices will be formed incrementally for  20 cycles.

 Cycle   1  Pass 1  IDiag  1:
 FoFJK:  IHMeth= 1 ICntrl=     500 DoSepK=F KAlg= 0 I1Cent=           0 FoldK=F
 IRaf= 780000000 NMat=       1 IRICut=       1 DoRegI=T DoRafI=F ISym2E= 0 IDoP0=0 IntGTp=1.
 FoFCou: FMM=F IPFlag=           0 FMFlag=      100000 FMFlg1=           0
         NFxFlg=           0 DoJE=T BraDBF=F KetDBF=F FulRan=T
         wScrn=  0.000000 ICntrl=       500 IOpCl=  0 I1Cent=           0 NGrid=           0
         NMat0=    1 NMatS0=      1 NMatT0=    0 NMatD0=    1 NMtDS0=    0 NMtDT0=    0
 Symmetry not used in FoFCou.
 E= -5185.11051375254    
 DIIS: error= 8.25D-02 at cycle   1 NSaved=   1.
 NSaved= 1 IEnMin= 1 EnMin= -5185.11051375254     IErMin= 1 ErrMin= 8.25D-02
 ErrMax= 8.25D-02  0.00D+00 EMaxC= 1.00D-01 BMatC= 1.34D+01 BMatP= 1.34D+01
 IDIUse=3 WtCom= 1.75D-01 WtEn= 8.25D-01
 Coeff-Com:  0.100D+01
 Coeff-En:   0.100D+01
 Coeff:      0.100D+01
 Gap=     0.117 Goal=   None    Shift=    0.000
 Gap=    -0.420 Goal=   None    Shift=    0.000
 GapD=   -0.420 DampG=0.250 DampE=0.250 DampFc=0.1250 IDamp=-1.
 Damping current iteration by 1.25D-01
 RMSDP=5.13D-03 MaxDP=1.64D+00              OVMax= 9.71D-01

 Cycle   2  Pass 1  IDiag  1:
 RMSU=  6.41D-04    CP:  9.98D-01
 E= -5185.73739268555     Delta-E=       -0.626878933012 Rises=F Damp=T
 DIIS: error= 2.71D-02 at cycle   2 NSaved=   2.
 NSaved= 2 IEnMin= 2 EnMin= -5185.73739268555     IErMin= 2 ErrMin= 2.71D-02
 ErrMax= 2.71D-02  0.00D+00 EMaxC= 1.00D-01 BMatC= 2.77D+00 BMatP= 1.34D+01
 IDIUse=3 WtCom= 7.29D-01 WtEn= 2.71D-01
 Coeff-Com: -0.436D+00 0.144D+01
 Coeff-En:   0.106D+00 0.894D+00
 Coeff:     -0.289D+00 0.129D+01
 Gap=    -0.022 Goal=   None    Shift=    0.000
 Gap=    -0.097 Goal=   None    Shift=    0.000
 RMSDP=2.21D-03 MaxDP=2.87D-01 DE=-6.27D-01 OVMax= 8.96D-01

 Cycle   3  Pass 1  IDiag  1:
 RMSU=  2.21D-03    CP:  9.84D-01  1.02D+00
 E= -5174.30699354413     Delta-E=       11.430399141422 Rises=F Damp=F
 DIIS: error= 3.18D-01 at cycle   3 NSaved=   3.
 NSaved= 3 IEnMin= 2 EnMin= -5185.73739268555     IErMin= 2 ErrMin= 2.71D-02
 ErrMax= 3.18D-01  0.00D+00 EMaxC= 1.00D-01 BMatC= 5.68D+01 BMatP= 2.77D+00
 IDIUse=2 WtCom= 0.00D+00 WtEn= 1.00D+00
 EnCoef did     2 forward-backward iterations
 Coeff-En:   0.971D-01 0.835D+00 0.683D-01
 Coeff:      0.971D-01 0.835D+00 0.683D-01
 Gap=     0.231 Goal=   None    Shift=    0.000
 Gap=     0.015 Goal=   None    Shift=    0.000
 RMSDP=2.64D-03 MaxDP=3.34D-01 DE= 1.14D+01 OVMax= 8.64D-01

 Cycle   4  Pass 1  IDiag  1:
 RMSU=  1.80D-03    CP:  9.88D-01  1.92D+00  1.62D-01
 E= -5177.64217691013     Delta-E=       -3.335183366000 Rises=F Damp=F
 DIIS: error= 1.58D-01 at cycle   4 NSaved=   4.
 NSaved= 4 IEnMin= 2 EnMin= -5185.73739268555     IErMin= 2 ErrMin= 2.71D-02
 ErrMax= 1.58D-01  0.00D+00 EMaxC= 1.00D-01 BMatC= 5.49D+01 BMatP= 2.77D+00
 IDIUse=2 WtCom= 0.00D+00 WtEn= 1.00D+00
 EnCoef did   100 forward-backward iterations
 Coeff-En:   0.629D+00 0.288D-01 0.105D+00 0.237D+00
 Coeff:      0.629D+00 0.288D-01 0.105D+00 0.237D+00
 Gap=     0.039 Goal=   None    Shift=    0.000
 Gap=    -0.003 Goal=   None    Shift=    0.000
 RMSDP=1.77D-03 MaxDP=3.25D-01 DE=-3.34D+00 OVMax= 8.07D-01

 Cycle   5  Pass 1  IDiag  1:
 RMSU=  1.17D-03    CP:  9.96D-01  1.18D+00  2.59D-01  3.20D-01
 E= -5183.46857286767     Delta-E=       -5.826395957545 Rises=F Damp=F
 DIIS: error= 2.27D-01 at cycle   5 NSaved=   5.
 NSaved= 5 IEnMin= 2 EnMin= -5185.73739268555     IErMin= 2 ErrMin= 2.71D-02
 ErrMax= 2.27D-01  0.00D+00 EMaxC= 1.00D-01 BMatC= 2.57D+01 BMatP= 2.77D+00
 IDIUse=2 WtCom= 0.00D+00 WtEn= 1.00D+00
 EnCoef did   100 forward-backward iterations
 Coeff-En:   0.594D+00 0.110D-01 0.832D-04 0.146D+00 0.249D+00
 Coeff:      0.594D+00 0.110D-01 0.832D-04 0.146D+00 0.249D+00
 Gap=     0.023 Goal=   None    Shift=    0.000
 Gap=    -0.015 Goal=   None    Shift=    0.000
 RMSDP=1.50D-03 MaxDP=3.24D-01 DE=-5.83D+00 OVMax= 6.91D-01

 Cycle   6  Pass 1  IDiag  1:
 RMSU=  1.01D-03    CP:  9.98D-01  8.83D-01  2.08D-01  3.69D-01  8.19D-02
 E= -5185.23637427637     Delta-E=       -1.767801408696 Rises=F Damp=F
 DIIS: error= 6.11D-02 at cycle   6 NSaved=   6.
 NSaved= 6 IEnMin= 2 EnMin= -5185.73739268555     IErMin= 2 ErrMin= 2.71D-02
 ErrMax= 6.11D-02  0.00D+00 EMaxC= 1.00D-01 BMatC= 9.68D+00 BMatP= 2.77D+00
 IDIUse=2 WtCom= 0.00D+00 WtEn= 1.00D+00
 EnCoef did   100 forward-backward iterations
 Coeff-En:   0.356D+00 0.118D-01 0.000D+00 0.178D-01 0.277D+00 0.337D+00
 Coeff:      0.356D+00 0.118D-01 0.000D+00 0.178D-01 0.277D+00 0.337D+00
 Gap=     0.222 Goal=   None    Shift=    0.000
 Gap=     0.098 Goal=   None    Shift=    0.000
 RMSDP=1.54D-03 MaxDP=1.96D-01 DE=-1.77D+00 OVMax= 9.92D-01

 Cycle   7  Pass 1  IDiag  1:
 RMSU=  9.95D-04    CP:  9.94D-01  1.03D+00  5.18D-02  6.04D-01  1.66D-01
                    CP: -1.50D-02
 E= -5182.56682012185     Delta-E=        2.669554154516 Rises=F Damp=F
 DIIS: error= 8.56D-02 at cycle   7 NSaved=   7.
 NSaved= 7 IEnMin= 2 EnMin= -5185.73739268555     IErMin= 2 ErrMin= 2.71D-02
 ErrMax= 8.56D-02  0.00D+00 EMaxC= 1.00D-01 BMatC= 1.44D+01 BMatP= 2.77D+00
 IDIUse=2 WtCom= 0.00D+00 WtEn= 1.00D+00
 EnCoef did   100 forward-backward iterations
 Coeff-En:   0.333D+00 0.214D-02 0.000D+00 0.339D-02 0.268D+00 0.306D+00
 Coeff-En:   0.878D-01
 Coeff:      0.333D+00 0.214D-02 0.000D+00 0.339D-02 0.268D+00 0.306D+00
 Coeff:      0.878D-01
 Gap=     0.164 Goal=   None    Shift=    0.000
 Gap=    -0.010 Goal=   None    Shift=    0.000
 RMSDP=1.22D-03 MaxDP=2.04D-01 DE= 2.67D+00 OVMax= 9.65D-01

 Cycle   8  Pass 1  IDiag  1:
 RMSU=  4.58D-04    CP:  1.00D+00  6.16D-01  1.27D-01  2.56D-01  4.12D-01
                    CP:  3.67D-01  2.58D-01
 E= -5186.70154512249     Delta-E=       -4.134725000637 Rises=F Damp=F
 DIIS: error= 1.81D-02 at cycle   8 NSaved=   8.
 NSaved= 8 IEnMin= 8 EnMin= -5186.70154512249     IErMin= 8 ErrMin= 1.81D-02
 ErrMax= 1.81D-02  0.00D+00 EMaxC= 1.00D-01 BMatC= 7.07D-01 BMatP= 2.77D+00
 IDIUse=3 WtCom= 8.19D-01 WtEn= 1.81D-01
 EnCoef did     7 forward-backward iterations
 Coeff-Com: -0.215D+00 0.342D+00 0.154D-01-0.264D-01 0.407D-01 0.118D+00
 Coeff-Com:  0.311D-01 0.694D+00
 Coeff-En:   0.000D+00 0.000D+00 0.000D+00 0.311D-02 0.528D-01 0.791D-01
 Coeff-En:   0.134D-02 0.864D+00
 Coeff:     -0.176D+00 0.280D+00 0.126D-01-0.211D-01 0.429D-01 0.111D+00
 Coeff:      0.257D-01 0.724D+00
 Gap=     0.096 Goal=   None    Shift=    0.000
 Gap=     0.131 Goal=   None    Shift=    0.000
 RMSDP=6.22D-04 MaxDP=1.23D-01 DE=-4.13D+00 OVMax= 3.95D-01

 Cycle   9  Pass 1  IDiag  1:
 RMSU=  5.32D-04    CP:  1.00D+00  8.21D-01  1.38D-01  3.18D-01  3.70D-01
                    CP:  4.77D-01  1.40D-01  5.39D-01
 E= -5186.42387678854     Delta-E=        0.277668333947 Rises=F Damp=F
 DIIS: error= 3.56D-02 at cycle   9 NSaved=   9.
 NSaved= 9 IEnMin= 8 EnMin= -5186.70154512249     IErMin= 8 ErrMin= 1.81D-02
 ErrMax= 3.56D-02  0.00D+00 EMaxC= 1.00D-01 BMatC= 2.49D+00 BMatP= 7.07D-01
 IDIUse=2 WtCom= 0.00D+00 WtEn= 1.00D+00
 Coeff-En:   0.000D+00 0.000D+00 0.000D+00 0.000D+00 0.000D+00 0.000D+00
 Coeff-En:   0.000D+00 0.708D+00 0.292D+00
 Coeff:      0.000D+00 0.000D+00 0.000D+00 0.000D+00 0.000D+00 0.000D+00
 Coeff:      0.000D+00 0.708D+00 0.292D+00
 Gap=     0.104 Goal=   None    Shift=    0.000
 Gap=     0.062 Goal=   None    Shift=    0.000
 RMSDP=1.27D-03 MaxDP=2.94D-01 DE= 2.78D-01 OVMax= 5.90D-01

 Cycle  10  Pass 1  IDiag  1:
 RMSU=  8.75D-04    CP:  9.96D-01  1.48D+00  1.31D-01  5.36D-01  4.56D-01
                    CP:  2.99D-01 -1.18D-01  4.71D-01 -1.85D-01
 E= -5183.01153891424     Delta-E=        3.412337874299 Rises=F Damp=F
 DIIS: error= 1.03D-01 at cycle  10 NSaved=  10.
 NSaved=10 IEnMin= 8 EnMin= -5186.70154512249     IErMin= 8 ErrMin= 1.81D-02
 ErrMax= 1.03D-01  0.00D+00 EMaxC= 1.00D-01 BMatC= 2.64D+01 BMatP= 7.07D-01
 IDIUse=2 WtCom= 0.00D+00 WtEn= 1.00D+00
 EnCoef did     2 forward-backward iterations
 Coeff-En:   0.000D+00 0.000D+00 0.000D+00 0.000D+00 0.000D+00 0.000D+00
 Coeff-En:   0.000D+00 0.680D+00 0.286D+00 0.336D-01
 Coeff:      0.000D+00 0.000D+00 0.000D+00 0.000D+00 0.000D+00 0.000D+00
 Coeff:      0.000D+00 0.680D+00 0.286D+00 0.336D-01
 Gap=     0.047 Goal=   None    Shift=    0.000
 Gap=     0.021 Goal=   None    Shift=    0.000
 RMSDP=9.65D-04 MaxDP=2.52D-01 DE= 3.41D+00 OVMax= 9.70D-01

 Cycle  11  Pass 1  IDiag  1:
 RMSU=  3.27D-04    CP:  1.00D+00  1.01D+00  1.41D-01  3.47D-01  4.77D-01
                    CP:  4.90D-01  6.86D-02  7.57D-01  1.97D-01  2.05D-01
 E= -5186.45780068001     Delta-E=       -3.446261765765 Rises=F Damp=F
 DIIS: error= 5.47D-02 at cycle  11 NSaved=  11.
 NSaved=11 IEnMin= 8 EnMin= -5186.70154512249     IErMin= 8 ErrMin= 1.81D-02
 ErrMax= 5.47D-02  0.00D+00 EMaxC= 1.00D-01 BMatC= 2.64D+00 BMatP= 7.07D-01
 IDIUse=2 WtCom= 0.00D+00 WtEn= 1.00D+00
 EnCoef did     1 forward-backward iterations
 Coeff-En:   0.000D+00 0.000D+00 0.000D+00 0.000D+00 0.000D+00 0.000D+00
 Coeff-En:   0.000D+00 0.600D+00 0.207D+00 0.000D+00 0.194D+00
 Coeff:      0.000D+00 0.000D+00 0.000D+00 0.000D+00 0.000D+00 0.000D+00
 Coeff:      0.000D+00 0.600D+00 0.207D+00 0.000D+00 0.194D+00
 Gap=     0.083 Goal=   None    Shift=    0.000
 Gap=     0.061 Goal=   None    Shift=    0.000
 RMSDP=3.86D-04 MaxDP=7.44D-02 DE=-3.45D+00 OVMax= 1.96D-01

 Cycle  12  Pass 1  IDiag  1:
 RMSU=  1.57D-04    CP:  1.00D+00  8.14D-01  1.17D-01  3.09D-01  3.66D-01
                    CP:  5.33D-01  1.62D-01  7.61D-01  3.62D-01  6.04D-02
                    CP:  3.17D-01
 E= -5186.74690575899     Delta-E=       -0.289105078982 Rises=F Damp=F
 DIIS: error= 1.90D-02 at cycle  12 NSaved=  12.
 NSaved=12 IEnMin=12 EnMin= -5186.74690575899     IErMin= 8 ErrMin= 1.81D-02
 ErrMax= 1.90D-02  0.00D+00 EMaxC= 1.00D-01 BMatC= 4.26D-01 BMatP= 7.07D-01
 IDIUse=3 WtCom= 8.19D-01 WtEn= 1.81D-01
 EnCoef did   100 forward-backward iterations
 Coeff-Com: -0.161D-01 0.100D-01 0.283D-02-0.534D-02-0.266D-02-0.433D-01
 Coeff-Com:  0.712D-03 0.402D+00 0.105D+00-0.116D-01 0.186D+00 0.372D+00
 Coeff-En:   0.000D+00 0.000D+00 0.000D+00 0.000D+00 0.185D-02 0.000D+00
 Coeff-En:   0.000D+00 0.416D+00 0.667D-01 0.000D+00 0.129D+00 0.387D+00
 Coeff:     -0.132D-01 0.821D-02 0.231D-02-0.437D-02-0.185D-02-0.354D-01
 Coeff:      0.582D-03 0.405D+00 0.981D-01-0.951D-02 0.175D+00 0.375D+00
 Gap=     0.083 Goal=   None    Shift=    0.000
 Gap=     0.069 Goal=   None    Shift=    0.000
 RMSDP=2.20D-04 MaxDP=3.52D-02 DE=-2.89D-01 OVMax= 1.19D-01

 Cycle  13  Pass 1  IDiag  1:
 RMSU=  9.49D-05    CP:  1.00D+00  7.84D-01  1.31D-01  2.96D-01  4.36D-01
                    CP:  4.17D-01  1.84D-01  8.75D-01  3.66D-01  5.16D-02
                    CP:  3.25D-01  2.58D-01
 E= -5186.79602959050     Delta-E=       -0.049123831506 Rises=F Damp=F
 DIIS: error= 1.56D-02 at cycle  13 NSaved=  13.
 NSaved=13 IEnMin=13 EnMin= -5186.79602959050     IErMin=13 ErrMin= 1.56D-02
 ErrMax= 1.56D-02  0.00D+00 EMaxC= 1.00D-01 BMatC= 1.11D-01 BMatP= 4.26D-01
 IDIUse=3 WtCom= 8.44D-01 WtEn= 1.56D-01
 EnCoef did     3 forward-backward iterations
 Coeff-Com:  0.366D-02-0.219D-02 0.649D-03-0.621D-03-0.117D-02-0.241D-01
 Coeff-Com: -0.535D-02 0.121D+00-0.332D-01-0.178D-02 0.127D-01 0.382D+00
 Coeff-Com:  0.548D+00
 Coeff-En:   0.000D+00 0.000D+00 0.000D+00 0.000D+00 0.000D+00 0.000D+00
 Coeff-En:   0.000D+00 0.999D-01 0.000D+00 0.000D+00 0.000D+00 0.252D+00
 Coeff-En:   0.648D+00
 Coeff:      0.309D-02-0.185D-02 0.548D-03-0.524D-03-0.990D-03-0.204D-01
 Coeff:     -0.451D-02 0.118D+00-0.280D-01-0.151D-02 0.107D-01 0.362D+00
 Coeff:      0.564D+00
 Gap=     0.085 Goal=   None    Shift=    0.000
 Gap=     0.070 Goal=   None    Shift=    0.000
 RMSDP=1.03D-04 MaxDP=2.13D-02 DE=-4.91D-02 OVMax= 6.39D-02

 Cycle  14  Pass 1  IDiag  1:
 RMSU=  4.98D-05    CP:  1.00D+00  7.61D-01  1.24D-01  2.86D-01  4.11D-01
                    CP:  4.45D-01  1.90D-01  8.76D-01  2.99D-01  5.58D-02
                    CP:  2.98D-01  5.52D-01  5.22D-01
 E= -5186.81092878948     Delta-E=       -0.014899198981 Rises=F Damp=F
 DIIS: error= 4.90D-03 at cycle  14 NSaved=  14.
 NSaved=14 IEnMin=14 EnMin= -5186.81092878948     IErMin=14 ErrMin= 4.90D-03
 ErrMax= 4.90D-03  0.00D+00 EMaxC= 1.00D-01 BMatC= 1.17D-02 BMatP= 1.11D-01
 IDIUse=3 WtCom= 9.51D-01 WtEn= 4.90D-02
 Coeff-Com: -0.398D-02 0.359D-02 0.202D-03-0.361D-04-0.532D-04-0.747D-02
 Coeff-Com: -0.105D-02 0.327D-01-0.194D-01 0.666D-03-0.922D-02 0.151D+00
 Coeff-Com:  0.365D+00 0.489D+00
 Coeff-En:   0.000D+00 0.000D+00 0.000D+00 0.000D+00 0.000D+00 0.000D+00
 Coeff-En:   0.000D+00 0.000D+00 0.000D+00 0.000D+00 0.000D+00 0.000D+00
 Coeff-En:   0.199D+00 0.801D+00
 Coeff:     -0.378D-02 0.342D-02 0.192D-03-0.343D-04-0.506D-04-0.710D-02
 Coeff:     -0.999D-03 0.311D-01-0.185D-01 0.633D-03-0.877D-02 0.143D+00
 Coeff:      0.357D+00 0.504D+00
 Gap=     0.079 Goal=   None    Shift=    0.000
 Gap=     0.067 Goal=   None    Shift=    0.000
 RMSDP=3.28D-05 MaxDP=3.75D-03 DE=-1.49D-02 OVMax= 1.32D-02

 Cycle  15  Pass 1  IDiag  1:
 RMSU=  1.82D-05    CP:  1.00D+00  7.71D-01  1.25D-01  2.90D-01  4.15D-01
                    CP:  4.42D-01  1.88D-01  8.78D-01  3.14D-01  5.58D-02
                    CP:  3.10D-01  5.29D-01  6.61D-01  6.37D-01
 E= -5186.81267867373     Delta-E=       -0.001749884250 Rises=F Damp=F
 DIIS: error= 5.04D-04 at cycle  15 NSaved=  15.
 NSaved=15 IEnMin=15 EnMin= -5186.81267867373     IErMin=15 ErrMin= 5.04D-04
 ErrMax= 5.04D-04  0.00D+00 EMaxC= 1.00D-01 BMatC= 7.69D-04 BMatP= 1.17D-02
 IDIUse=3 WtCom= 9.95D-01 WtEn= 5.04D-03
 Coeff-Com: -0.514D-02 0.534D-02-0.285D-04 0.137D-04-0.534D-03-0.154D-03
 Coeff-Com:  0.693D-03 0.673D-02-0.590D-02 0.151D-03-0.337D-02 0.290D-01
 Coeff-Com:  0.161D+00 0.367D+00 0.445D+00
 Coeff-En:   0.000D+00 0.000D+00 0.000D+00 0.000D+00 0.000D+00 0.000D+00
 Coeff-En:   0.000D+00 0.000D+00 0.000D+00 0.000D+00 0.000D+00 0.000D+00
 Coeff-En:   0.000D+00 0.000D+00 0.100D+01
 Coeff:     -0.511D-02 0.532D-02-0.283D-04 0.136D-04-0.531D-03-0.153D-03
 Coeff:      0.689D-03 0.669D-02-0.587D-02 0.150D-03-0.335D-02 0.289D-01
 Coeff:      0.160D+00 0.365D+00 0.448D+00
 Gap=     0.079 Goal=   None    Shift=    0.000
 Gap=     0.067 Goal=   None    Shift=    0.000
 RMSDP=1.13D-05 MaxDP=9.19D-04 DE=-1.75D-03 OVMax= 2.51D-03

 Cycle  16  Pass 1  IDiag  1:
 RMSU=  8.06D-06    CP:  1.00D+00  7.70D-01  1.25D-01  2.90D-01  4.16D-01
                    CP:  4.41D-01  1.89D-01  8.79D-01  3.13D-01  5.48D-02
                    CP:  3.08D-01  5.23D-01  6.66D-01  7.25D-01  6.65D-01
 E= -5186.81279218349     Delta-E=       -0.000113509768 Rises=F Damp=F
 DIIS: error= 4.83D-04 at cycle  16 NSaved=  16.
 NSaved=16 IEnMin=16 EnMin= -5186.81279218349     IErMin=16 ErrMin= 4.83D-04
 ErrMax= 4.83D-04  0.00D+00 EMaxC= 1.00D-01 BMatC= 2.35D-04 BMatP= 7.69D-04
 IDIUse=3 WtCom= 9.95D-01 WtEn= 4.83D-03
 Coeff-Com: -0.433D-02 0.510D-02-0.124D-03-0.152D-04-0.590D-03 0.804D-03
 Coeff-Com:  0.896D-03 0.673D-03-0.844D-03 0.165D-03-0.513D-03 0.577D-03
 Coeff-Com:  0.656D-01 0.180D+00 0.308D+00 0.445D+00
 Coeff-En:   0.000D+00 0.000D+00 0.000D+00 0.000D+00 0.000D+00 0.000D+00
 Coeff-En:   0.000D+00 0.000D+00 0.000D+00 0.000D+00 0.000D+00 0.000D+00
 Coeff-En:   0.000D+00 0.000D+00 0.133D+00 0.867D+00
 Coeff:     -0.431D-02 0.508D-02-0.123D-03-0.152D-04-0.587D-03 0.800D-03
 Coeff:      0.892D-03 0.670D-03-0.840D-03 0.164D-03-0.510D-03 0.574D-03
 Coeff:      0.653D-01 0.179D+00 0.307D+00 0.447D+00
 Gap=     0.079 Goal=   None    Shift=    0.000
 Gap=     0.067 Goal=   None    Shift=    0.000
 RMSDP=5.17D-06 MaxDP=6.90D-04 DE=-1.14D-04 OVMax= 1.49D-03

 Cycle  17  Pass 1  IDiag  1:
 RMSU=  4.39D-06    CP:  1.00D+00  7.71D-01  1.25D-01  2.90D-01  4.15D-01
                    CP:  4.41D-01  1.89D-01  8.80D-01  3.12D-01  5.50D-02
                    CP:  3.09D-01  5.23D-01  6.74D-01  7.45D-01  7.25D-01
                    CP:  7.55D-01
 E= -5186.81282335225     Delta-E=       -0.000031168756 Rises=F Damp=F
 DIIS: error= 3.45D-04 at cycle  17 NSaved=  17.
 NSaved=17 IEnMin=17 EnMin= -5186.81282335225     IErMin=17 ErrMin= 3.45D-04
 ErrMax= 3.45D-04  0.00D+00 EMaxC= 1.00D-01 BMatC= 1.00D-04 BMatP= 2.35D-04
 IDIUse=3 WtCom= 9.97D-01 WtEn= 3.45D-03
 Coeff-Com: -0.211D-02 0.272D-02-0.154D-03-0.769D-04-0.163D-03-0.221D-03
 Coeff-Com:  0.777D-03-0.110D-02 0.110D-02 0.158D-03 0.818D-03-0.106D-03
 Coeff-Com: -0.218D-02-0.255D-01 0.121D-01 0.273D+00 0.741D+00
 Coeff-En:   0.000D+00 0.000D+00 0.000D+00 0.000D+00 0.000D+00 0.000D+00
 Coeff-En:   0.000D+00 0.000D+00 0.000D+00 0.000D+00 0.000D+00 0.000D+00
 Coeff-En:   0.000D+00 0.000D+00 0.000D+00 0.000D+00 0.100D+01
 Coeff:     -0.210D-02 0.271D-02-0.153D-03-0.766D-04-0.162D-03-0.220D-03
 Coeff:      0.774D-03-0.110D-02 0.109D-02 0.157D-03 0.815D-03-0.105D-03
 Coeff:     -0.217D-02-0.254D-01 0.121D-01 0.272D+00 0.742D+00
 Gap=     0.079 Goal=   None    Shift=    0.000
 Gap=     0.067 Goal=   None    Shift=    0.000
 RMSDP=4.08D-06 MaxDP=7.93D-04 DE=-3.12D-05 OVMax= 2.10D-03

 Cycle  18  Pass 1  IDiag  1:
 RMSU=  2.75D-06    CP:  1.00D+00  7.72D-01  1.25D-01  2.91D-01  4.15D-01
                    CP:  4.40D-01  1.89D-01  8.80D-01  3.14D-01  5.49D-02
                    CP:  3.11D-01  5.28D-01  6.84D-01  7.60D-01  7.78D-01
                    CP:  1.00D+00  1.16D+00
 E= -5186.81284045134     Delta-E=       -0.000017099088 Rises=F Damp=F
 DIIS: error= 1.43D-04 at cycle  18 NSaved=  18.
 NSaved=18 IEnMin=18 EnMin= -5186.81284045134     IErMin=18 ErrMin= 1.43D-04
 ErrMax= 1.43D-04  0.00D+00 EMaxC= 1.00D-01 BMatC= 3.59D-05 BMatP= 1.00D-04
 IDIUse=3 WtCom= 9.99D-01 WtEn= 1.43D-03
 Coeff-Com: -0.326D-03 0.557D-03-0.117D-03-0.218D-04 0.199D-03-0.636D-03
 Coeff-Com:  0.363D-03-0.731D-04 0.478D-03 0.998D-04 0.741D-04 0.527D-02
 Coeff-Com: -0.251D-01-0.116D+00-0.159D+00-0.212D-01 0.612D+00 0.704D+00
 Coeff-En:   0.000D+00 0.000D+00 0.000D+00 0.000D+00 0.000D+00 0.000D+00
 Coeff-En:   0.000D+00 0.000D+00 0.000D+00 0.000D+00 0.000D+00 0.000D+00
 Coeff-En:   0.000D+00 0.000D+00 0.000D+00 0.000D+00 0.000D+00 0.100D+01
 Coeff:     -0.325D-03 0.556D-03-0.117D-03-0.218D-04 0.199D-03-0.635D-03
 Coeff:      0.363D-03-0.730D-04 0.477D-03 0.996D-04 0.740D-04 0.527D-02
 Coeff:     -0.251D-01-0.116D+00-0.159D+00-0.211D-01 0.611D+00 0.704D+00
 Gap=     0.079 Goal=   None    Shift=    0.000
 Gap=     0.067 Goal=   None    Shift=    0.000
 RMSDP=3.81D-06 MaxDP=7.21D-04 DE=-1.71D-05 OVMax= 1.76D-03

 Cycle  19  Pass 1  IDiag  1:
 RMSU=  1.81D-06    CP:  1.00D+00  7.73D-01  1.25D-01  2.91D-01  4.15D-01
                    CP:  4.40D-01  1.89D-01  8.81D-01  3.14D-01  5.47D-02
                    CP:  3.12D-01  5.35D-01  6.92D-01  7.62D-01  8.26D-01
                    CP:  1.23D+00  1.59D+00  9.71D-01
 E= -5186.81285029432     Delta-E=       -0.000009842977 Rises=F Damp=F
 DIIS: error= 7.56D-05 at cycle  19 NSaved=  19.
 NSaved=19 IEnMin=19 EnMin= -5186.81285029432     IErMin=19 ErrMin= 7.56D-05
 ErrMax= 7.56D-05  0.00D+00 EMaxC= 1.00D-01 BMatC= 6.28D-06 BMatP= 3.59D-05
 IDIUse=1 WtCom= 1.00D+00 WtEn= 0.00D+00
 Coeff-Com:  0.125D-03-0.619D-04-0.422D-04 0.549D-06 0.173D-03-0.368D-03
 Coeff-Com:  0.164D-03 0.552D-03-0.215D-03 0.123D-04-0.228D-03 0.408D-02
 Coeff-Com: -0.143D-01-0.720D-01-0.110D+00-0.851D-01 0.204D+00 0.487D+00
 Coeff-Com:  0.586D+00
 Coeff:      0.125D-03-0.619D-04-0.422D-04 0.549D-06 0.173D-03-0.368D-03
 Coeff:      0.164D-03 0.552D-03-0.215D-03 0.123D-04-0.228D-03 0.408D-02
 Coeff:     -0.143D-01-0.720D-01-0.110D+00-0.851D-01 0.204D+00 0.487D+00
 Coeff:      0.586D+00
 Gap=     0.079 Goal=   None    Shift=    0.000
 Gap=     0.067 Goal=   None    Shift=    0.000
 RMSDP=1.83D-06 MaxDP=3.18D-04 DE=-9.84D-06 OVMax= 8.37D-04

 Cycle  20  Pass 1  IDiag  1:
 RMSU=  9.51D-07    CP:  1.00D+00  7.73D-01  1.25D-01  2.91D-01  4.15D-01
                    CP:  4.40D-01  1.89D-01  8.81D-01  3.14D-01  5.46D-02
                    CP:  3.12D-01  5.38D-01  6.95D-01  7.65D-01  8.46D-01
                    CP:  1.30D+00  1.80D+00  1.23D+00  9.03D-01
 E= -5186.81285180282     Delta-E=       -0.000001508501 Rises=F Damp=F
 DIIS: error= 5.93D-05 at cycle  20 NSaved=  20.
 NSaved=20 IEnMin=20 EnMin= -5186.81285180282     IErMin=20 ErrMin= 5.93D-05
 ErrMax= 5.93D-05  0.00D+00 EMaxC= 1.00D-01 BMatC= 3.18D-06 BMatP= 6.28D-06
 IDIUse=1 WtCom= 1.00D+00 WtEn= 0.00D+00
 Coeff-Com:  0.196D-03-0.204D-03 0.493D-05 0.537D-05 0.420D-04-0.527D-04
 Coeff-Com:  0.544D-04 0.462D-03-0.296D-03-0.225D-04-0.412D-04 0.606D-03
 Coeff-Com: -0.251D-02-0.181D-01-0.326D-01-0.583D-01-0.527D-01 0.153D+00
 Coeff-Com:  0.480D+00 0.531D+00
 Coeff:      0.196D-03-0.204D-03 0.493D-05 0.537D-05 0.420D-04-0.527D-04
 Coeff:      0.544D-04 0.462D-03-0.296D-03-0.225D-04-0.412D-04 0.606D-03
 Coeff:     -0.251D-02-0.181D-01-0.326D-01-0.583D-01-0.527D-01 0.153D+00
 Coeff:      0.480D+00 0.531D+00
 Gap=     0.079 Goal=   None    Shift=    0.000
 Gap=     0.067 Goal=   None    Shift=    0.000
 RMSDP=9.74D-07 MaxDP=1.78D-04 DE=-1.51D-06 OVMax= 4.86D-04

 Cycle  21  Pass 1  IDiag  1:
 Restarting incremental Fock formation.
 E= -5186.81285249808     Delta-E=       -0.000000695263 Rises=F Damp=F
 DIIS: error= 2.78D-05 at cycle  21 NSaved=  20.
 NSaved=20 IEnMin=20 EnMin= -5186.81285249808     IErMin=20 ErrMin= 2.78D-05
 ErrMax= 2.78D-05  0.00D+00 EMaxC= 1.00D-01 BMatC= 5.58D-07 BMatP= 3.18D-06
 IDIUse=1 WtCom= 1.00D+00 WtEn= 0.00D+00
 Coeff-Com:  0.175D-03-0.217D-03 0.939D-05 0.127D-05 0.445D-04-0.272D-05
 Coeff-Com:  0.111D-03-0.875D-04 0.167D-05 0.845D-06-0.785D-03 0.548D-03
 Coeff-Com: -0.751D-03-0.391D-02-0.232D-01-0.675D-01 0.231D-01 0.202D+00
 Coeff-Com:  0.339D+00 0.532D+00
 Coeff:      0.175D-03-0.217D-03 0.939D-05 0.127D-05 0.445D-04-0.272D-05
 Coeff:      0.111D-03-0.875D-04 0.167D-05 0.845D-06-0.785D-03 0.548D-03
 Coeff:     -0.751D-03-0.391D-02-0.232D-01-0.675D-01 0.231D-01 0.202D+00
 Coeff:      0.339D+00 0.532D+00
 Gap=     0.079 Goal=   None    Shift=    0.000
 Gap=     0.067 Goal=   None    Shift=    0.000
 RMSDP=4.15D-07 MaxDP=7.57D-05 DE=-6.95D-07 OVMax= 1.83D-04

 Cycle  22  Pass 1  IDiag  1:
 RMSU=  4.15D-07    CP:  1.00D+00
 E= -5186.81285260761     Delta-E=       -0.000000109532 Rises=F Damp=F
 DIIS: error= 1.26D-05 at cycle  22 NSaved=  20.
 NSaved=20 IEnMin=20 EnMin= -5186.81285260761     IErMin=20 ErrMin= 1.26D-05
 ErrMax= 1.26D-05  0.00D+00 EMaxC= 1.00D-01 BMatC= 1.78D-07 BMatP= 5.58D-07
 IDIUse=1 WtCom= 1.00D+00 WtEn= 0.00D+00
 Coeff-Com:  0.802D-04-0.114D-03-0.810D-06 0.546D-04-0.395D-05-0.369D-04
 Coeff-Com:  0.448D-04-0.778D-07-0.194D-04-0.872D-03 0.739D-03 0.389D-02
 Coeff-Com:  0.527D-02-0.502D-03-0.307D-01-0.245D-01 0.400D-02 0.891D-01
 Coeff-Com:  0.401D+00 0.553D+00
 Coeff:      0.802D-04-0.114D-03-0.810D-06 0.546D-04-0.395D-05-0.369D-04
 Coeff:      0.448D-04-0.778D-07-0.194D-04-0.872D-03 0.739D-03 0.389D-02
 Coeff:      0.527D-02-0.502D-03-0.307D-01-0.245D-01 0.400D-02 0.891D-01
 Coeff:      0.401D+00 0.553D+00
 Gap=     0.079 Goal=   None    Shift=    0.000
 Gap=     0.067 Goal=   None    Shift=    0.000
 RMSDP=2.54D-07 MaxDP=3.88D-05 DE=-1.10D-07 OVMax= 1.04D-04

 Cycle  23  Pass 1  IDiag  1:
 RMSU=  2.42D-07    CP:  1.00D+00  1.19D+00
 E= -5186.81285264424     Delta-E=       -0.000000036627 Rises=F Damp=F
 DIIS: error= 6.46D-06 at cycle  23 NSaved=  20.
 NSaved=20 IEnMin=20 EnMin= -5186.81285264424     IErMin=20 ErrMin= 6.46D-06
 ErrMax= 6.46D-06  0.00D+00 EMaxC= 1.00D-01 BMatC= 5.70D-08 BMatP= 1.78D-07
 IDIUse=1 WtCom= 1.00D+00 WtEn= 0.00D+00
 Coeff-Com:  0.160D-04-0.274D-04 0.577D-05 0.228D-04-0.412D-04 0.493D-04
 Coeff-Com: -0.378D-05-0.584D-04-0.281D-03 0.394D-04 0.215D-02 0.356D-02
 Coeff-Com:  0.613D-02 0.448D-02-0.222D-01-0.641D-01-0.570D-01 0.785D-01
 Coeff-Com:  0.398D+00 0.650D+00
 Coeff:      0.160D-04-0.274D-04 0.577D-05 0.228D-04-0.412D-04 0.493D-04
 Coeff:     -0.378D-05-0.584D-04-0.281D-03 0.394D-04 0.215D-02 0.356D-02
 Coeff:      0.613D-02 0.448D-02-0.222D-01-0.641D-01-0.570D-01 0.785D-01
 Coeff:      0.398D+00 0.650D+00
 Gap=     0.079 Goal=   None    Shift=    0.000
 Gap=     0.067 Goal=   None    Shift=    0.000
 RMSDP=1.65D-07 MaxDP=2.52D-05 DE=-3.66D-08 OVMax= 8.17D-05

 Cycle  24  Pass 1  IDiag  1:
 RMSU=  1.32D-07    CP:  1.00D+00  1.40D+00  1.19D+00
 E= -5186.81285265723     Delta-E=       -0.000000012995 Rises=F Damp=F
 DIIS: error= 3.14D-06 at cycle  24 NSaved=  20.
 NSaved=20 IEnMin=20 EnMin= -5186.81285265723     IErMin=20 ErrMin= 3.14D-06
 ErrMax= 3.14D-06  0.00D+00 EMaxC= 1.00D-01 BMatC= 1.32D-08 BMatP= 5.70D-08
 IDIUse=1 WtCom= 1.00D+00 WtEn= 0.00D+00
 Coeff-Com:  0.133D-04-0.197D-04 0.341D-05-0.124D-05-0.200D-04 0.220D-04
 Coeff-Com: -0.281D-04-0.592D-05-0.964D-04 0.597D-03 0.118D-02 0.354D-02
 Coeff-Com:  0.755D-02-0.104D-01-0.410D-01-0.542D-01-0.323D-01 0.162D+00
 Coeff-Com:  0.467D+00 0.496D+00
 Coeff:      0.133D-04-0.197D-04 0.341D-05-0.124D-05-0.200D-04 0.220D-04
 Coeff:     -0.281D-04-0.592D-05-0.964D-04 0.597D-03 0.118D-02 0.354D-02
 Coeff:      0.755D-02-0.104D-01-0.410D-01-0.542D-01-0.323D-01 0.162D+00
 Coeff:      0.467D+00 0.496D+00
 Gap=     0.079 Goal=   None    Shift=    0.000
 Gap=     0.067 Goal=   None    Shift=    0.000
 RMSDP=7.22D-08 MaxDP=1.09D-05 DE=-1.30D-08 OVMax= 3.11D-05

 Cycle  25  Pass 1  IDiag  1:
 RMSU=  5.01D-08    CP:  1.00D+00  1.51D+00  1.31D+00  9.90D-01
 E= -5186.81285265964     Delta-E=       -0.000000002407 Rises=F Damp=F
 DIIS: error= 3.28D-06 at cycle  25 NSaved=  20.
 NSaved=20 IEnMin=20 EnMin= -5186.81285265964     IErMin=19 ErrMin= 3.14D-06
 ErrMax= 3.28D-06  0.00D+00 EMaxC= 1.00D-01 BMatC= 5.20D-09 BMatP= 1.32D-08
 IDIUse=1 WtCom= 1.00D+00 WtEn= 0.00D+00
 Coeff-Com:  0.364D-05-0.421D-05-0.568D-05-0.766D-05 0.621D-05 0.105D-04
 Coeff-Com: -0.404D-05-0.479D-04-0.664D-04 0.708D-04 0.784D-03 0.244D-02
 Coeff-Com: -0.136D-02-0.694D-02-0.165D-01-0.397D-01-0.767D-02 0.114D+00
 Coeff-Com:  0.307D+00 0.648D+00
 Coeff:      0.364D-05-0.421D-05-0.568D-05-0.766D-05 0.621D-05 0.105D-04
 Coeff:     -0.404D-05-0.479D-04-0.664D-04 0.708D-04 0.784D-03 0.244D-02
 Coeff:     -0.136D-02-0.694D-02-0.165D-01-0.397D-01-0.767D-02 0.114D+00
 Coeff:      0.307D+00 0.648D+00
 Gap=     0.079 Goal=   None    Shift=    0.000
 Gap=     0.067 Goal=   None    Shift=    0.000
 RMSDP=3.41D-08 MaxDP=5.63D-06 DE=-2.41D-09 OVMax= 1.34D-05

 Cycle  26  Pass 1  IDiag  1:
 RMSU=  2.15D-08    CP:  1.00D+00  1.55D+00  1.37D+00  1.03D+00  8.40D-01
 E= -5186.81285266049     Delta-E=       -0.000000000848 Rises=F Damp=F
 DIIS: error= 1.37D-06 at cycle  26 NSaved=  20.
 NSaved=20 IEnMin=20 EnMin= -5186.81285266049     IErMin=20 ErrMin= 1.37D-06
 ErrMax= 1.37D-06  0.00D+00 EMaxC= 1.00D-01 BMatC= 8.79D-10 BMatP= 5.20D-09
 IDIUse=1 WtCom= 1.00D+00 WtEn= 0.00D+00
 Coeff-Com:  0.272D-06-0.241D-05 0.398D-06 0.156D-06 0.915D-05-0.810D-05
 Coeff-Com:  0.645D-05-0.176D-03-0.262D-03-0.229D-03 0.881D-04 0.120D-02
 Coeff-Com:  0.276D-02-0.104D-02-0.182D-01-0.328D-01-0.743D-02 0.107D+00
 Coeff-Com:  0.393D+00 0.557D+00
 Coeff:      0.272D-06-0.241D-05 0.398D-06 0.156D-06 0.915D-05-0.810D-05
 Coeff:      0.645D-05-0.176D-03-0.262D-03-0.229D-03 0.881D-04 0.120D-02
 Coeff:      0.276D-02-0.104D-02-0.182D-01-0.328D-01-0.743D-02 0.107D+00
 Coeff:      0.393D+00 0.557D+00
 Gap=     0.079 Goal=   None    Shift=    0.000
 Gap=     0.067 Goal=   None    Shift=    0.000
 RMSDP=1.49D-08 MaxDP=2.24D-06 DE=-8.48D-10 OVMax= 4.87D-06

 Cycle  27  Pass 1  IDiag  1:
 RMSU=  1.16D-08    CP:  1.00D+00  1.57D+00  1.40D+00  1.05D+00  8.36D-01
                    CP:  8.81D-01
 E= -5186.81285266057     Delta-E=       -0.000000000085 Rises=F Damp=F
 DIIS: error= 4.80D-07 at cycle  27 NSaved=  20.
 NSaved=20 IEnMin=20 EnMin= -5186.81285266057     IErMin=20 ErrMin= 4.80D-07
 ErrMax= 4.80D-07  0.00D+00 EMaxC= 1.00D-01 BMatC= 2.79D-10 BMatP= 8.79D-10
 IDIUse=1 WtCom= 1.00D+00 WtEn= 0.00D+00
 Coeff-Com: -0.628D-08 0.399D-05-0.248D-05 0.426D-05-0.383D-05 0.308D-04
 Coeff-Com: -0.137D-03-0.280D-03-0.511D-03-0.762D-03 0.140D-02 0.417D-02
 Coeff-Com:  0.362D-02-0.371D-02-0.233D-01-0.338D-01 0.433D-02 0.143D+00
 Coeff-Com:  0.462D+00 0.443D+00
 Coeff:     -0.628D-08 0.399D-05-0.248D-05 0.426D-05-0.383D-05 0.308D-04
 Coeff:     -0.137D-03-0.280D-03-0.511D-03-0.762D-03 0.140D-02 0.417D-02
 Coeff:      0.362D-02-0.371D-02-0.233D-01-0.338D-01 0.433D-02 0.143D+00
 Coeff:      0.462D+00 0.443D+00
 Gap=     0.079 Goal=   None    Shift=    0.000
 Gap=     0.067 Goal=   None    Shift=    0.000
 RMSDP=7.68D-09 MaxDP=1.07D-06 DE=-8.55D-11 OVMax= 2.62D-06

 Cycle  28  Pass 1  IDiag  1:
 RMSU=  5.60D-09    CP:  1.00D+00  1.58D+00  1.41D+00  1.06D+00  8.56D-01
                    CP:  9.65D-01  7.79D-01
 E= -5186.81285266059     Delta-E=       -0.000000000015 Rises=F Damp=F
 DIIS: error= 5.77D-08 at cycle  28 NSaved=  20.
 NSaved=20 IEnMin=20 EnMin= -5186.81285266059     IErMin=20 ErrMin= 5.77D-08
 ErrMax= 5.77D-08  0.00D+00 EMaxC= 1.00D-01 BMatC= 2.11D-11 BMatP= 2.79D-10
 IDIUse=1 WtCom= 1.00D+00 WtEn= 0.00D+00
 Coeff-Com:  0.411D-05-0.219D-05-0.273D-06 0.104D-04 0.186D-04-0.831D-04
 Coeff-Com: -0.177D-03-0.282D-03-0.185D-03 0.737D-03 0.156D-02 0.145D-02
 Coeff-Com: -0.482D-04-0.642D-02-0.140D-01-0.151D-01 0.884D-02 0.152D+00
 Coeff-Com:  0.247D+00 0.625D+00
 Coeff:      0.411D-05-0.219D-05-0.273D-06 0.104D-04 0.186D-04-0.831D-04
 Coeff:     -0.177D-03-0.282D-03-0.185D-03 0.737D-03 0.156D-02 0.145D-02
 Coeff:     -0.482D-04-0.642D-02-0.140D-01-0.151D-01 0.884D-02 0.152D+00
 Coeff:      0.247D+00 0.625D+00
 Gap=     0.079 Goal=   None    Shift=    0.000
 Gap=     0.067 Goal=   None    Shift=    0.000
 RMSDP=3.13D-09 MaxDP=3.93D-07 DE=-1.46D-11 OVMax= 9.65D-07

 SCF Done:  E(UM06L) =  -5186.81285266     A.U. after   28 cycles
            NFock= 28  Conv=0.31D-08     -V/T= 2.0017
 <Sx>= 0.0000 <Sy>= 0.0000 <Sz>= 7.0000 <S**2>=56.0878 S= 7.0058
 <L.S>=  0.00000000000    
 KE= 5.178260968651D+03 PE=-2.122391491824D+04 EE= 6.400729887757D+03
 Annihilation of the first spin contaminant:
 S**2 before annihilation    56.0878,   after    56.0006
 Leave Link  502 at Tue Jan 24 10:11:36 2023, MaxMem= 14763950080 cpu:            9452.4 elap:            4765.9
 (Enter /software/commercial/gaussian/g16/AVX2/g16/l508.exe)
 QCSCF skips out because SCF is already converged.
 Leave Link  508 at Tue Jan 24 10:11:37 2023, MaxMem= 14763950080 cpu:               0.0 elap:               0.0
 (Enter /software/commercial/gaussian/g16/AVX2/g16/l601.exe)
 Copying SCF densities to generalized density rwf, IOpCl= 1 IROHF=0.

 **********************************************************************

            Population analysis using the SCF Density.

 **********************************************************************

 Alpha  occ. eigenvalues -- -255.66744-255.66743-255.63969 -30.11788 -30.11787
 Alpha  occ. eigenvalues --  -30.07984 -25.88908 -25.88908 -25.88838 -25.88837
 Alpha  occ. eigenvalues --  -25.88715 -25.88713 -25.85505 -25.85450 -25.85036
 Alpha  occ. eigenvalues --  -19.00664 -19.00663 -19.00474 -19.00472 -18.99986
 Alpha  occ. eigenvalues --  -18.99981 -18.99943 -18.99899 -18.99469 -18.99394
 Alpha  occ. eigenvalues --  -18.99380 -18.98721 -18.98693 -18.98175 -14.25142
 Alpha  occ. eigenvalues --  -14.24998 -10.20322 -10.20321 -10.19292 -10.19220
 Alpha  occ. eigenvalues --  -10.19046 -10.19020  -3.68573  -3.68571  -3.61835
 Alpha  occ. eigenvalues --   -2.42746  -2.42732  -2.42589  -2.42570  -2.42325
 Alpha  occ. eigenvalues --   -2.42320  -2.36990  -2.36725  -2.34468  -1.09391
 Alpha  occ. eigenvalues --   -1.08797  -1.08190  -1.08064  -1.07606  -1.07570
 Alpha  occ. eigenvalues --   -1.06071  -1.01482  -1.01037  -1.00502  -1.00306
 Alpha  occ. eigenvalues --   -0.99954  -0.99932  -0.96396  -0.90299  -0.61729
 Alpha  occ. eigenvalues --   -0.60576  -0.60035  -0.59874  -0.59451  -0.59394
 Alpha  occ. eigenvalues --   -0.51919  -0.51490  -0.50797  -0.50695  -0.50267
 Alpha  occ. eigenvalues --   -0.50107  -0.49831  -0.49814  -0.49078  -0.48981
 Alpha  occ. eigenvalues --   -0.48072  -0.47953  -0.47804  -0.46920  -0.46567
 Alpha  occ. eigenvalues --   -0.45638  -0.44994  -0.44175  -0.43971  -0.42718
 Alpha  occ. eigenvalues --   -0.42217  -0.41934  -0.41854  -0.41694  -0.41312
 Alpha  occ. eigenvalues --   -0.41176  -0.40654  -0.40242  -0.40032  -0.39998
 Alpha  occ. eigenvalues --   -0.39379  -0.39376  -0.39099  -0.38380  -0.36825
 Alpha  occ. eigenvalues --   -0.36695  -0.35596  -0.35025  -0.33871  -0.32715
 Alpha  occ. eigenvalues --   -0.31849  -0.31760  -0.31355  -0.30813  -0.30765
 Alpha  occ. eigenvalues --   -0.30724  -0.30385  -0.29969  -0.29805  -0.29568
 Alpha  occ. eigenvalues --   -0.29178  -0.28714  -0.27303  -0.27160  -0.26609
 Alpha  occ. eigenvalues --   -0.25830  -0.24910  -0.24590  -0.24162  -0.23984
 Alpha virt. eigenvalues --   -0.16081  -0.05965  -0.05036  -0.04399  -0.04160
 Alpha virt. eigenvalues --   -0.04021  -0.03892  -0.03800  -0.03491   0.01248
 Alpha virt. eigenvalues --    0.01985   0.05693   0.07161   0.07315   0.07526
 Alpha virt. eigenvalues --    0.07723   0.08190   0.08426   0.09528   0.10868
 Alpha virt. eigenvalues --    0.12277   0.13066   0.13793   0.14953   0.15414
 Alpha virt. eigenvalues --    0.16524   0.16684   0.17423   0.18230   0.18714
 Alpha virt. eigenvalues --    0.20145   0.20778   0.21464   0.21682   0.21910
 Alpha virt. eigenvalues --    0.22449   0.23668   0.24168   0.24550   0.24856
 Alpha virt. eigenvalues --    0.25831   0.26125   0.26459   0.26824   0.27286
 Alpha virt. eigenvalues --    0.27638   0.28696   0.28979   0.29177   0.29905
 Alpha virt. eigenvalues --    0.30526   0.31234   0.31520   0.31789   0.32559
 Alpha virt. eigenvalues --    0.33182   0.33500   0.33737   0.34222   0.34924
 Alpha virt. eigenvalues --    0.35324   0.35654   0.36077   0.36263   0.36981
 Alpha virt. eigenvalues --    0.37653   0.37766   0.38196   0.38674   0.38794
 Alpha virt. eigenvalues --    0.39337   0.39508   0.40250   0.40646   0.41251
 Alpha virt. eigenvalues --    0.41645   0.41795   0.41998   0.42325   0.43367
 Alpha virt. eigenvalues --    0.43663   0.44672   0.44894   0.45342   0.45517
 Alpha virt. eigenvalues --    0.46225   0.46642   0.47601   0.48002   0.48973
 Alpha virt. eigenvalues --    0.49652   0.50691   0.50883   0.51564   0.51816
 Alpha virt. eigenvalues --    0.52765   0.53437   0.53739   0.54037   0.54448
 Alpha virt. eigenvalues --    0.55101   0.55985   0.56530   0.56956   0.57557
 Alpha virt. eigenvalues --    0.59515   0.59745   0.60980   0.62347   0.63174
 Alpha virt. eigenvalues --    0.63805   0.64666   0.65562   0.65972   0.66360
 Alpha virt. eigenvalues --    0.66515   0.67635   0.67974   0.68524   0.68628
 Alpha virt. eigenvalues --    0.69263   0.70207   0.70478   0.71063   0.71331
 Alpha virt. eigenvalues --    0.71934   0.72291   0.72626   0.73297   0.73724
 Alpha virt. eigenvalues --    0.74057   0.74905   0.75217   0.75992   0.76222
 Alpha virt. eigenvalues --    0.77133   0.77999   0.79425   0.79844   0.80137
 Alpha virt. eigenvalues --    0.80733   0.81091   0.81571   0.82395   0.83158
 Alpha virt. eigenvalues --    0.84073   0.85427   0.86045   0.86340   0.86614
 Alpha virt. eigenvalues --    0.87976   0.88882   0.89455   0.89804   0.90582
 Alpha virt. eigenvalues --    0.90968   0.91622   0.92025   0.93238   0.94550
 Alpha virt. eigenvalues --    0.94971   0.95942   0.96127   0.96786   0.97785
 Alpha virt. eigenvalues --    0.98137   0.98305   0.98848   1.00181   1.01824
 Alpha virt. eigenvalues --    1.02170   1.02614   1.03109   1.04003   1.05275
 Alpha virt. eigenvalues --    1.06086   1.07079   1.07987   1.08809   1.09236
 Alpha virt. eigenvalues --    1.09903   1.10442   1.11386   1.12688   1.13760
 Alpha virt. eigenvalues --    1.15262   1.17189   1.18113   1.19168   1.19677
 Alpha virt. eigenvalues --    1.21955   1.22244   1.23271   1.24013   1.24383
 Alpha virt. eigenvalues --    1.25079   1.26786   1.26979   1.27627   1.29884
 Alpha virt. eigenvalues --    1.31734   1.32451   1.34352   1.36440   1.37072
 Alpha virt. eigenvalues --    1.38927   1.39179   1.40417   1.42366   1.42486
 Alpha virt. eigenvalues --    1.42959   1.44471   1.45108   1.46143   1.46625
 Alpha virt. eigenvalues --    1.47175   1.47906   1.48551   1.48797   1.49272
 Alpha virt. eigenvalues --    1.50460   1.51010   1.51809   1.53782   1.54135
 Alpha virt. eigenvalues --    1.55506   1.56058   1.57363   1.57797   1.58485
 Alpha virt. eigenvalues --    1.58608   1.60701   1.60935   1.61379   1.64215
 Alpha virt. eigenvalues --    1.65123   1.65446   1.66269   1.67146   1.69147
 Alpha virt. eigenvalues --    1.69749   1.70703   1.71802   1.72230   1.73190
 Alpha virt. eigenvalues --    1.73656   1.74363   1.74858   1.75638   1.76718
 Alpha virt. eigenvalues --    1.77438   1.79160   1.80134   1.82011   1.82586
 Alpha virt. eigenvalues --    1.84474   1.84927   1.86002   1.86684   1.87096
 Alpha virt. eigenvalues --    1.87686   1.88541   1.89477   1.89717   1.90479
 Alpha virt. eigenvalues --    1.91594   1.91963   1.93671   1.94373   1.95523
 Alpha virt. eigenvalues --    1.96137   1.97659   1.97763   1.98656   1.99609
 Alpha virt. eigenvalues --    2.00317   2.01015   2.01587   2.02014   2.03184
 Alpha virt. eigenvalues --    2.03714   2.04181   2.05652   2.06017   2.07011
 Alpha virt. eigenvalues --    2.07732   2.07937   2.10103   2.10768   2.10910
 Alpha virt. eigenvalues --    2.11451   2.11861   2.12645   2.12867   2.13933
 Alpha virt. eigenvalues --    2.14622   2.15422   2.16407   2.16542   2.16908
 Alpha virt. eigenvalues --    2.17998   2.18344   2.19943   2.20268   2.20782
 Alpha virt. eigenvalues --    2.22059   2.22870   2.23758   2.24251   2.24893
 Alpha virt. eigenvalues --    2.25280   2.25918   2.27376   2.29450   2.30469
 Alpha virt. eigenvalues --    2.31309   2.31928   2.32775   2.34725   2.35775
 Alpha virt. eigenvalues --    2.37870   2.39151   2.39723   2.41593   2.43939
 Alpha virt. eigenvalues --    2.45752   2.46888   2.52916   2.53069   2.55262
 Alpha virt. eigenvalues --    2.55559   2.56517   2.57005   2.59171   2.60964
 Alpha virt. eigenvalues --    2.61968   2.63052   2.66198   2.66836   2.67120
 Alpha virt. eigenvalues --    2.67869   2.69566   2.70275   2.70564   2.72373
[...]
 Coeff-Com: -0.694D-02 0.315D+00 0.692D+00
 Coeff:     -0.694D-02 0.315D+00 0.692D+00
 Gap=     0.328 Goal=   None    Shift=    0.000
 Gap=     0.328 Goal=   None    Shift=    0.000
 RMSDP=9.62D-08 MaxDP=1.32D-06 DE=-3.53D-11 OVMax= 1.18D-06

 Cycle  10  Pass 1  IDiag  1:
 E= -109.558191235511     Delta-E=       -0.000000000011 Rises=F Damp=F
 DIIS: error= 9.59D-08 at cycle   4 NSaved=   4.
 NSaved= 4 IEnMin= 4 EnMin= -109.558191235511     IErMin= 4 ErrMin= 9.59D-08
 ErrMax= 9.59D-08  0.00D+00 EMaxC= 1.00D-01 BMatC= 1.74D-12 BMatP= 6.19D-11
 IDIUse=1 WtCom= 1.00D+00 WtEn= 0.00D+00
 Coeff-Com: -0.905D-03-0.157D-01 0.106D+00 0.910D+00
 Coeff:     -0.905D-03-0.157D-01 0.106D+00 0.910D+00
 Gap=     0.328 Goal=   None    Shift=    0.000
 Gap=     0.328 Goal=   None    Shift=    0.000
 RMSDP=3.95D-08 MaxDP=5.91D-07 DE=-1.07D-11 OVMax= 2.54D-07

 Cycle  11  Pass 1  IDiag  1:
 E= -109.558191235512     Delta-E=       -0.000000000000 Rises=F Damp=F
 DIIS: error= 2.70D-08 at cycle   5 NSaved=   5.
 NSaved= 5 IEnMin= 5 EnMin= -109.558191235512     IErMin= 5 ErrMin= 2.70D-08
 ErrMax= 2.70D-08  0.00D+00 EMaxC= 1.00D-01 BMatC= 8.18D-14 BMatP= 1.74D-12
 IDIUse=1 WtCom= 1.00D+00 WtEn= 0.00D+00
 Coeff-Com: -0.133D-03-0.116D-01-0.540D-02 0.197D+00 0.820D+00
 Coeff:     -0.133D-03-0.116D-01-0.540D-02 0.197D+00 0.820D+00
 Gap=     0.328 Goal=   None    Shift=    0.000
 Gap=     0.328 Goal=   None    Shift=    0.000
 RMSDP=7.15D-09 MaxDP=9.52D-08 DE=-3.41D-13 OVMax= 5.12D-08

 SCF Done:  E(UM06L) =  -109.558191236     A.U. after   11 cycles
            NFock= 11  Conv=0.72D-08     -V/T= 2.0033
 <Sx>= 0.0000 <Sy>= 0.0000 <Sz>= 0.0000 <S**2>=-0.0000 S=-0.0000
 <L.S>=  0.00000000000    
 KE= 1.092021826715D+02 PE=-3.039887140928D+02 EE= 6.154794030254D+01
 Annihilation of the first spin contaminant:
 S**2 before annihilation    -0.0000,   after     0.0000
 Leave Link  502 at Tue Jan 24 12:56:21 2023, MaxMem= 14763950080 cpu:               3.7 elap:               2.2
 (Enter /software/commercial/gaussian/g16/AVX2/g16/l508.exe)
 QCSCF skips out because SCF is already converged.
 Leave Link  508 at Tue Jan 24 12:56:21 2023, MaxMem= 14763950080 cpu:               0.0 elap:               0.0
 (Enter /software/commercial/gaussian/g16/AVX2/g16/l601.exe)
 Copying SCF densities to generalized density rwf, IOpCl= 1 IROHF=0.

 **********************************************************************

            Population analysis using the SCF Density.

 **********************************************************************

 Alpha  occ. eigenvalues --  -14.26610 -14.26477  -1.07600  -0.52130  -0.43390
 Alpha  occ. eigenvalues --   -0.43390  -0.38083
 Alpha virt. eigenvalues --   -0.05249  -0.05249   0.26119   0.28381   0.32402
 Alpha virt. eigenvalues --    0.32402   0.34963   0.45239   0.45239   0.49947
 Alpha virt. eigenvalues --    0.76944   0.83290   0.83290   1.08442   1.08442
 Alpha virt. eigenvalues --    1.27496   1.27496   1.35732   1.69052   1.69052
 Alpha virt. eigenvalues --    1.73951   1.90471   2.00776   2.00777   2.09305
 Alpha virt. eigenvalues --    2.30073   2.30073   2.58169   2.90235   3.52140
 Alpha virt. eigenvalues --    3.52140   3.64427   3.64428   3.70398   3.70398
 Alpha virt. eigenvalues --    4.18992   4.20808   4.20808   4.42218   4.42218
 Alpha virt. eigenvalues --    4.55128   4.55128   4.59986   4.59986   5.06864
 Alpha virt. eigenvalues --    5.06865   5.07510   5.12995   5.12996   6.29461
 Alpha virt. eigenvalues --    6.39647   6.39648   6.63828  31.34761  32.16130
  Beta  occ. eigenvalues --  -14.26610 -14.26477  -1.07600  -0.52130  -0.43390
  Beta  occ. eigenvalues --   -0.43390  -0.38083
  Beta virt. eigenvalues --   -0.05249  -0.05249   0.26119   0.28381   0.32402
  Beta virt. eigenvalues --    0.32402   0.34963   0.45239   0.45239   0.49947
  Beta virt. eigenvalues --    0.76944   0.83290   0.83290   1.08442   1.08442
  Beta virt. eigenvalues --    1.27496   1.27496   1.35732   1.69052   1.69052
  Beta virt. eigenvalues --    1.73951   1.90471   2.00776   2.00777   2.09305
  Beta virt. eigenvalues --    2.30073   2.30073   2.58169   2.90235   3.52140
  Beta virt. eigenvalues --    3.52140   3.64427   3.64428   3.70398   3.70398
  Beta virt. eigenvalues --    4.18992   4.20808   4.20808   4.42218   4.42218
  Beta virt. eigenvalues --    4.55128   4.55128   4.59986   4.59986   5.06864
  Beta virt. eigenvalues --    5.06865   5.07510   5.12995   5.12996   6.29461
  Beta virt. eigenvalues --    6.39647   6.39648   6.63828  31.34761  32.16130
          Condensed to atoms (all electrons):
              29         30
    29  N    6.640058   0.359942
    30  N    0.359942   6.640058
          Atomic-Atomic Spin Densities.
              29         30
    29  N    0.000000   0.000000
    30  N    0.000000   0.000000
 Mulliken charges and spin densities:
               1          2
     1  O    0.000000   0.000000
     2  O    0.000000   0.000000
     3  C    0.000000   0.000000
     4  H    0.000000   0.000000
     5  O    0.000000   0.000000
     6  O    0.000000   0.000000
     7  C    0.000000   0.000000
     8  H    0.000000   0.000000
     9  O    0.000000   0.000000
    10  O    0.000000   0.000000
    11  O    0.000000   0.000000
    12  C    0.000000   0.000000
    13  H    0.000000   0.000000
    14  O    0.000000   0.000000
    15  O    0.000000   0.000000
    16  C    0.000000   0.000000
    17  H    0.000000   0.000000
    18  Fe   0.000000   0.000000
    19  O    0.000000   0.000000
    20  Fe   0.000000   0.000000
    21  O    0.000000   0.000000
    22  O    0.000000   0.000000
    23  Fe   0.000000   0.000000
    24  O    0.000000   0.000000
    25  C    0.000000   0.000000
    26  H    0.000000   0.000000
    27  C    0.000000   0.000000
    28  H    0.000000   0.000000
    29  N    0.000000   0.000000
    30  N   -0.000000   0.000000
    31  O    0.000000   0.000000
 Sum of Mulliken charges =  -0.00000   0.00000
 Mulliken charges and spin densities with hydrogens summed into heavy atoms:
               1          2
     1  O    0.000000   0.000000
     2  O    0.000000   0.000000
     3  C    0.000000   0.000000
     5  O    0.000000   0.000000
     6  O    0.000000   0.000000
     7  C    0.000000   0.000000
     9  O    0.000000   0.000000
    10  O    0.000000   0.000000
    11  O    0.000000   0.000000
    12  C    0.000000   0.000000
    14  O    0.000000   0.000000
    15  O    0.000000   0.000000
    16  C    0.000000   0.000000
    18  Fe   0.000000   0.000000
    19  O    0.000000   0.000000
    20  Fe   0.000000   0.000000
    21  O    0.000000   0.000000
    22  O    0.000000   0.000000
    23  Fe   0.000000   0.000000
    24  O    0.000000   0.000000
    25  C    0.000000   0.000000
    27  C    0.000000   0.000000
    29  N    0.000000   0.000000
    30  N   -0.000000   0.000000
    31  O    0.000000   0.000000
         Mulliken charges and spin densities condensed to fragments:
      1      0.000000      0.000000
      2     -0.000000      0.000000
 Electronic spatial extent (au):  <R**2>=           1398.4633
 Charge=             -0.0000 electrons
 Dipole moment (field-independent basis, Debye):
    X=             -0.0000    Y=             -0.0000    Z=              0.0000  Tot=              0.0000
 Quadrupole moment (field-independent basis, Debye-Ang):
   XX=            -10.5167   YY=            -10.7264   ZZ=            -10.4652
   XY=             -0.5977   XZ=              0.4755   YZ=              0.5662
 Traceless Quadrupole moment (field-independent basis, Debye-Ang):
   XX=              0.0527   YY=             -0.1569   ZZ=              0.1042
   XY=             -0.5977   XZ=              0.4755   YZ=              0.5662
 Octapole moment (field-independent basis, Debye-Ang**2):
  XXX=            163.8473  YYY=            -13.1933  ZZZ=             -7.8828  XYY=             55.2146
  XXY=              1.8962  XXZ=             -7.5797  XZZ=             54.5872  YZZ=             -4.0064
  YYZ=             -2.2289  XYZ=             -2.8956
 Hexadecapole moment (field-independent basis, Debye-Ang**3):
 XXXX=          -1716.4166 YYYY=            -28.2413 ZZZZ=            -17.9040 XXXY=             14.8828
 XXXZ=             82.7449 YYYX=             64.1615 YYYZ=              0.8124 ZZZX=             44.1345
 ZZZY=              0.5751 XXYY=           -291.5234 XXZZ=           -290.2904 YYZZ=             -7.6212
 XXYZ=             15.1430 YYXZ=             12.8196 ZZXY=             19.3950
 N-N= 2.368039988326D+01 E-N=-3.039887133193D+02  KE= 1.092021826715D+02
 There are a total of       43812 grid points.
 ElSum from          density=       13.9999999164
 ElSum from atomic densities=       13.9999999317
 Hirshfeld populations at iteration   1 (CA, CB, DipXYZ):
               1          2          3          4          5
     1  O    0.000000   0.000000   0.000000   0.000000   0.000000
     2  O    0.000000   0.000000   0.000000   0.000000   0.000000
     3  C    0.000000   0.000000   0.000000   0.000000   0.000000
     4  H    0.000000   0.000000   0.000000   0.000000   0.000000
     5  O    0.000000   0.000000   0.000000   0.000000   0.000000
     6  O    0.000000   0.000000   0.000000   0.000000   0.000000
     7  C    0.000000   0.000000   0.000000   0.000000   0.000000
     8  H    0.000000   0.000000   0.000000   0.000000   0.000000
     9  O    0.000000   0.000000   0.000000   0.000000   0.000000
    10  O    0.000000   0.000000   0.000000   0.000000   0.000000
    11  O    0.000000   0.000000   0.000000   0.000000   0.000000
    12  C    0.000000   0.000000   0.000000   0.000000   0.000000
    13  H    0.000000   0.000000   0.000000   0.000000   0.000000
    14  O    0.000000   0.000000   0.000000   0.000000   0.000000
    15  O    0.000000   0.000000   0.000000   0.000000   0.000000
    16  C    0.000000   0.000000   0.000000   0.000000   0.000000
    17  H    0.000000   0.000000   0.000000   0.000000   0.000000
    18  Fe   0.000000   0.000000   0.000000   0.000000   0.000000
    19  O    0.000000   0.000000   0.000000   0.000000   0.000000
    20  Fe   0.000000   0.000000   0.000000   0.000000   0.000000
    21  O    0.000000   0.000000   0.000000   0.000000   0.000000
    22  O    0.000000   0.000000   0.000000   0.000000   0.000000
    23  Fe   0.000000   0.000000   0.000000   0.000000   0.000000
    24  O    0.000000   0.000000   0.000000   0.000000   0.000000
    25  C    0.000000   0.000000   0.000000   0.000000   0.000000
    26  H    0.000000   0.000000   0.000000   0.000000   0.000000
    27  C    0.000000   0.000000   0.000000   0.000000   0.000000
    28  H    0.000000   0.000000   0.000000   0.000000   0.000000
    29  N    3.500000   3.500000   0.029835   0.035524  -0.028263
    30  N    3.500000   3.500000  -0.029835  -0.035524   0.028263
    31  O    0.000000   0.000000   0.000000   0.000000   0.000000
       Tot   7.000000   7.000000  -0.000000  -0.000000   0.000000

 Dip from Atomic Chgs             -0.000001   0.000000   0.000000
         Total Dipole             -0.000001   0.000000   0.000000

 Hirshfeld charges, spin densities, dipoles, and CM5 charges using IRadAn=      5:
              Q-H        S-H        Dx         Dy         Dz        Q-CM5   
     1  O    0.000000   0.000000   0.000000   0.000000   0.000000   0.000000
     2  O    0.000000   0.000000   0.000000   0.000000   0.000000   0.000000
     3  C    0.000000   0.000000   0.000000   0.000000   0.000000   0.000000
     4  H    0.000000   0.000000   0.000000   0.000000   0.000000   0.000000
     5  O    0.000000   0.000000   0.000000   0.000000   0.000000   0.000000
     6  O    0.000000   0.000000   0.000000   0.000000   0.000000   0.000000
     7  C    0.000000   0.000000   0.000000   0.000000   0.000000   0.000000
     8  H    0.000000   0.000000   0.000000   0.000000   0.000000   0.000000
     9  O    0.000000   0.000000   0.000000   0.000000   0.000000   0.000000
    10  O    0.000000   0.000000   0.000000   0.000000   0.000000   0.000000
    11  O    0.000000   0.000000   0.000000   0.000000   0.000000   0.000000
    12  C    0.000000   0.000000   0.000000   0.000000   0.000000   0.000000
    13  H    0.000000   0.000000   0.000000   0.000000   0.000000   0.000000
    14  O    0.000000   0.000000   0.000000   0.000000   0.000000   0.000000
    15  O    0.000000   0.000000   0.000000   0.000000   0.000000   0.000000
    16  C    0.000000   0.000000   0.000000   0.000000   0.000000   0.000000
    17  H    0.000000   0.000000   0.000000   0.000000   0.000000   0.000000
    18  Fe   0.000000   0.000000   0.000000   0.000000   0.000000   0.000000
    19  O    0.000000   0.000000   0.000000   0.000000   0.000000   0.000000
    20  Fe   0.000000   0.000000   0.000000   0.000000   0.000000   0.000000
    21  O    0.000000   0.000000   0.000000   0.000000   0.000000   0.000000
    22  O    0.000000   0.000000   0.000000   0.000000   0.000000   0.000000
    23  Fe   0.000000   0.000000   0.000000   0.000000   0.000000   0.000000
    24  O    0.000000   0.000000   0.000000   0.000000   0.000000   0.000000
    25  C    0.000000   0.000000   0.000000   0.000000   0.000000   0.000000
    26  H    0.000000   0.000000   0.000000   0.000000   0.000000   0.000000
    27  C    0.000000   0.000000   0.000000   0.000000   0.000000   0.000000
    28  H    0.000000   0.000000   0.000000   0.000000   0.000000   0.000000
    29  N    0.000000   0.000000   0.029835   0.035524  -0.028263   0.000000
    30  N    0.000000   0.000000  -0.029835  -0.035524   0.028263   0.000000
    31  O    0.000000   0.000000   0.000000   0.000000   0.000000   0.000000
       Tot   0.000000   0.000000  -0.000000  -0.000000   0.000000   0.000000
 Hirshfeld charges and spin densities with hydrogens summed into heavy atoms:
              Q-H        S-H       Q-CM5   
     1  O    0.000000   0.000000   0.000000
     2  O    0.000000   0.000000   0.000000
     3  C    0.000000   0.000000   0.000000
     5  O    0.000000   0.000000   0.000000
     6  O    0.000000   0.000000   0.000000
     7  C    0.000000   0.000000   0.000000
     9  O    0.000000   0.000000   0.000000
    10  O    0.000000   0.000000   0.000000
    11  O    0.000000   0.000000   0.000000
    12  C    0.000000   0.000000   0.000000
    14  O    0.000000   0.000000   0.000000
    15  O    0.000000   0.000000   0.000000
    16  C    0.000000   0.000000   0.000000
    18  Fe   0.000000   0.000000   0.000000
    19  O    0.000000   0.000000   0.000000
    20  Fe   0.000000   0.000000   0.000000
    21  O    0.000000   0.000000   0.000000
    22  O    0.000000   0.000000   0.000000
    23  Fe   0.000000   0.000000   0.000000
    24  O    0.000000   0.000000   0.000000
    25  C    0.000000   0.000000   0.000000
    27  C    0.000000   0.000000   0.000000
    29  N    0.000000   0.000000   0.000000
    30  N    0.000000   0.000000   0.000000
    31  O    0.000000   0.000000   0.000000
         Hirshfeld charges and spin densities condensed to fragments:
      1      0.000000      0.000000
      2      0.000000      0.000000
 
 EQQ=  0.00000000000     EQD=  0.00000000000     EDD=-0.333062116500E-03
 EQQ+QD+DD=-0.333062116500E-03
 
                          Isotropic Fermi Contact Couplings
        Atom                 a.u.       MegaHertz       Gauss      10(-4) cm-1
    29  N(14)              0.00000       0.00000       0.00000       0.00000
    30  N(14)              0.00000       0.00000       0.00000       0.00000
 --------------------------------------------------------
       Center         ----  Spin Dipole Couplings  ----
                      3XX-RR        3YY-RR        3ZZ-RR
 --------------------------------------------------------
    29   Atom        0.000000      0.000000      0.000000
    30   Atom        0.000000      0.000000      0.000000
 --------------------------------------------------------
                        XY            XZ            YZ
 --------------------------------------------------------
    29   Atom        0.000000      0.000000      0.000000
    30   Atom        0.000000      0.000000      0.000000
 --------------------------------------------------------


 ---------------------------------------------------------------------------------
              Anisotropic Spin Dipole Couplings in Principal Axis System
 ---------------------------------------------------------------------------------

       Atom             a.u.   MegaHertz   Gauss  10(-4) cm-1        Axes

              Baa     0.0000     0.000     0.000     0.000  1.0000  0.0000  0.0000
    29 N(14)  Bbb     0.0000     0.000     0.000     0.000 -0.0000  1.0000  0.0000
              Bcc     0.0000     0.000     0.000     0.000  0.0000  0.0000  1.0000
 
              Baa     0.0000     0.000     0.000     0.000  1.0000  0.0000  0.0000
    30 N(14)  Bbb     0.0000     0.000     0.000     0.000 -0.0000  1.0000  0.0000
              Bcc     0.0000     0.000     0.000     0.000  0.0000  0.0000  1.0000
 

 ---------------------------------------------------------------------------------

 No NMR shielding tensors so no spin-rotation constants.
 Leave Link  601 at Tue Jan 24 12:56:22 2023, MaxMem= 14763950080 cpu:               0.4 elap:               0.3
 (Enter /software/commercial/gaussian/g16/AVX2/g16/l122.exe)
 CPIOFr:  IOpCl= 1 IRwI=-1 IRwCP=  731 ICalc=  4 LCPTot=     1101821 Len1MO=     3656060 IndFrg=    19382121
 Restoring MOs from calculation   1 to rwf.
 CPIOFr:  IOpCl= 1 IRwI=-2 IRwCP=  731 ICalc=  0 LCPTot=     1101821 Len1MO=     3656060 IndFrg=     4757881
 Counterpoise corrected energy =   -5186.812420695485
                   BSSE energy =       0.000431965103
              sum of fragments =   -5186.809656142366
           complexation energy =      -2.01 kcal/mole (raw)
           complexation energy =      -1.73 kcal/mole (corrected)
 Leave Link  122 at Tue Jan 24 12:56:22 2023, MaxMem= 14763950080 cpu:               0.1 elap:               0.2
 (Enter /software/commercial/gaussian/g16/AVX2/g16/l9999.exe)
 Unable to Open any file for archive entry.
 1\1\GINC-NODE2008\SP\UM06L\Gen\C6H6Fe3N2O14(15)\SVICCHI\24-Jan-2023\0\
 \#p gen um06l int=grid=ultrafine scf=(xqc,intrep,maxconventionalcycle=
 150) pop=(hirshfeld) nosymm counterpoise=2\\FeFeFe-B-counterpoise\\0,1
 5\O,0,1.713511,-2.143781,-1.638333\O,0,-0.475155,-2.509277,-1.2049\C,0
 ,0.58459,-2.70609,-1.811096\H,0,0.575286,-3.466052,-2.610925\O,0,1.952
 173,2.037445,1.157128\O,0,3.122126,0.114603,1.127593\C,0,2.900296,1.29
 6706,1.494662\H,0,3.631024,1.723742,2.200523\O,0,-2.117666,-0.096457,-
 1.453853\O,0,2.679655,0.512148,-1.570821\O,0,1.39919,2.363167,-1.53132
 1\C,0,2.335444,1.645942,-1.967757\H,0,2.916023,2.072315,-2.801826\O,0,
 -0.540189,-2.096826,1.713949\O,0,1.647319,-2.249058,1.170544\C,0,0.633
 189,-2.472464,1.886435\H,0,0.815057,-3.088765,2.783203\Fe,0,-1.392864,
 -1.133895,0.137954\O,0,-2.097064,0.375189,1.472187\Fe,0,0.250665,1.813
 181,0.021995\O,0,-0.833523,2.245843,1.593189\O,0,-1.34079,2.00305,-1.1
 54979\Fe,0,1.955246,-0.840346,-0.199967\O,0,0.281088,-0.048023,-0.0132
 88\C,0,-1.775911,1.469725,1.951195\H,0,-2.371466,1.842262,2.802192\C,0
 ,-2.033784,1.115627,-1.723285\H,0,-2.649568,1.465737,-2.56854\N,0,-5.4
 93931,0.051965,0.535939\N,0,-4.89254,0.768023,-0.033782\O,0,-2.750172,
 -2.003473,0.260655\\Version=ES64L-G16RevC.02\HF=-109.5581912\S2=0.\S2-
 1=0.\S2A=0.\RMSD=7.152e-09\Dipole=1.4642104,0.9105461,-0.1366986\Quadr
 upole=-4.7103108,-2.0123332,6.722644,-4.6746309,1.8299425,0.0386526\PG
 =C01 [X(C6H6Fe3N2O14)]\\@
 The archive entry for this job was punched.


 HE WHO LOVES TO READ, AND KNOWS HOW TO REFLECT,
 HAS LAID BY A PERPETUAL FEAST FOR HIS OLD AGE.
 -- UNCLE ESEK, "SCRIBNER'S MONTHLY", SEPT. 1880
 Job cpu time:       0 days  8 hours  4 minutes 32.5 seconds.
 Elapsed time:       0 days  4 hours  4 minutes 20.0 seconds.
 File lengths (MBytes):  RWF=    892 Int=      0 D2E=      0 Chk=    194 Scr=      1
 Normal termination of Gaussian 16 at Tue Jan 24 12:56:23 2023.
