 Entering Gaussian System, Link 0=g16
 Input=FeFeFe-B-0xH2O-freq.gjf
 Output=FeFeFe-B-0xH2O-freq.log
 AtFile(1): /zfs/curium/svicchi/00-MOF/01-Gaussian/zw-basis-set/def2-TZVP/H.gbs
            !----------------------------------------------------------------------
            ! Basis Set Exchange
            ! Version v0.9
            ! https://www.basissetexchange.org
            !----------------------------------------------------------------------
            !   Basis set: def2-TZVP
            ! Description: def2-TZVP
            !        Role: orbital
            !     Version: 1  (Data from Turbomole 7.3)
            !----------------------------------------------------------------------
            H     0
            S    3   1.00
                 34.0613410              0.60251978D-02
                  5.1235746              0.45021094D-01
                  1.1646626              0.20189726
            S    1   1.00
                  0.32723041             1.0000000
            S    1   1.00
                  0.10307241             1.0000000
            P    1   1.00
                  0.8000000              1.0000000
 AtFile(1): /zfs/curium/svicchi/00-MOF/01-Gaussian/zw-basis-set/def2-TZVP/O.gbs
            !----------------------------------------------------------------------
            ! Basis Set Exchange
            ! Version v0.9
            ! https://www.basissetexchange.org
            !----------------------------------------------------------------------
            !   Basis set: def2-TZVP
            ! Description: def2-TZVP
            !        Role: orbital
            !     Version: 1  (Data from Turbomole 7.3)
            !----------------------------------------------------------------------
            O     0
            S    6   1.00
              27032.3826310              0.21726302465D-03
               4052.3871392              0.16838662199D-02
                922.32722710             0.87395616265D-02
                261.24070989             0.35239968808D-01
                 85.354641351            0.11153519115
                 31.035035245            0.25588953961
            S    2   1.00
                 12.260860728            0.39768730901
                  4.9987076005           0.24627849430
            S    1   1.00
                  1.1703108158           1.0000000
            S    1   1.00
                  0.46474740994          1.0000000
            S    1   1.00
                  0.18504536357          1.0000000
            P    4   1.00
                 63.274954801            0.60685103418D-02
                 14.627049379            0.41912575824D-01
                  4.4501223456           0.16153841088
                  1.5275799647           0.35706951311
            P    1   1.00
                  0.52935117943           .44794207502
            P    1   1.00
                  0.17478421270           .24446069663
            D    1   1.00
                  2.31400000             1.0000000
            D    1   1.00
                  0.64500000             1.0000000
            F    1   1.00
                  1.42800000             1.0000000
 AtFile(1): /zfs/curium/svicchi/00-MOF/01-Gaussian/zw-basis-set/def2-TZVP/C.gbs
            !----------------------------------------------------------------------
            ! Basis Set Exchange
            ! Version v0.9
            ! https://www.basissetexchange.org
            !----------------------------------------------------------------------
            !   Basis set: def2-TZVP
            ! Description: def2-TZVP
            !        Role: orbital
            !     Version: 1  (Data from Turbomole 7.3)
            !----------------------------------------------------------------------
            C     0
            S    6   1.00
              13575.3496820              0.22245814352D-03
               2035.2333680              0.17232738252D-02
                463.22562359             0.89255715314D-02
                131.20019598             0.35727984502D-01
                 42.853015891            0.11076259931
                 15.584185766            0.24295627626
            S    2   1.00
                  6.2067138508           0.41440263448
                  2.5764896527           0.23744968655
            S    1   1.00
                  0.57696339419          1.0000000
            S    1   1.00
                  0.22972831358          1.0000000
            S    1   1.00
                  0.95164440028D-01      1.0000000
            P    4   1.00
                 34.697232244            0.53333657805D-02
                  7.9582622826           0.35864109092D-01
                  2.3780826883           0.14215873329
                  0.81433208183          0.34270471845
            P    1   1.00
                  0.28887547253           .46445822433
            P    1   1.00
                  0.10056823671           .24955789874
            D    1   1.00
                  1.09700000             1.0000000
            D    1   1.00
                  0.31800000             1.0000000
            F    1   1.00
                  0.76100000             1.0000000
 AtFile(1): /zfs/curium/svicchi/00-MOF/01-Gaussian/zw-basis-set/def2-TZVP/Fe.gbs
            !----------------------------------------------------------------------
            ! Basis Set Exchange
            ! Version v0.9
            ! https://www.basissetexchange.org
            !----------------------------------------------------------------------
            !   Basis set: def2-TZVP
            ! Description: def2-TZVP
            !        Role: orbital
            !     Version: 1  (Data from Turbomole 7.3)
            !----------------------------------------------------------------------
            Fe     0
            S    8   1.00
             300784.8463700              0.22806273096D-03
              45088.9705570              0.17681788761D-02
              10262.5163170              0.91927083490D-02
               2905.2897293              0.37355495807D-01
                946.11487137             0.12151108426
                339.87832894             0.28818881468
                131.94425588             0.41126612677
                 52.111494077            0.21518583573
            S    4   1.00
                329.48839267            -0.24745216477D-01
                101.92332739            -0.11683089050
                 16.240462745            0.55293621136
                  6.8840675801           0.53601640182
            S    2   1.00
                 10.470693782           -0.22912708577
                  1.7360039648           0.71159319984
            S    1   1.00
                  0.72577288979          1.0000000
            S    1   1.00
                  0.11595528203          1.0000000
            S    1   1.00
                  0.41968227746D-01      1.0000000
            P    6   1.00
               1585.3959970              0.23793960179D-02
                375.38006499             0.19253154755D-01
                120.31816501             0.90021836536D-01
                 44.788749031            0.25798172356
                 17.829278584            0.41492649744
                  7.2247153786           0.24207474784
            P    3   1.00
                 28.143219756           -0.29041755152D-01
                  3.8743241412           0.55312260343
                  1.5410752281           0.96771136842
            P    1   1.00
                  0.58285615250          1.0000000
            P    1   1.00
                  0.1349150              1.0000000
            D    4   1.00
                 61.996675034            0.11971972255D-01
                 17.873732552            0.73210135410D-01
                  6.2744782934           0.23103094314
                  2.3552337175           0.39910706494
            D    1   1.00
                  0.85432239901           .41391589765
            D    1   1.00
                  0.27869254413           .21909269782
            D    1   1.00
                  0.0910000              1.0000000
            F    1   1.00
                  1.5980000              1.0000000
 AtFile(1): /zfs/curium/svicchi/00-MOF/01-Gaussian/zw-basis-set/def2-TZVP/N.gbs
            !----------------------------------------------------------------------
            ! Basis Set Exchange
            ! Version v0.9
            ! https://www.basissetexchange.org
            !----------------------------------------------------------------------
            !   Basis set: def2-TZVP
            ! Description: def2-TZVP
            !        Role: orbital
            !     Version: 1  (Data from Turbomole 7.3)
            !----------------------------------------------------------------------
            N     0
            S    6   1.00
              19730.8006470              0.21887984991D-03
               2957.8958745              0.16960708803D-02
                673.22133595             0.87954603538D-02
                190.68249494             0.35359382605D-01
                 62.295441898            0.11095789217
                 22.654161182            0.24982972552
            S    2   1.00
                  8.9791477428           0.40623896148
                  3.6863002370           0.24338217176
            S    1   1.00
                  0.84660076805          1.0000000
            S    1   1.00
                  0.33647133771          1.0000000
            S    1   1.00
                  0.13647653675          1.0000000
            P    4   1.00
                 49.200380510            0.55552416751D-02
                 11.346790537            0.38052379723D-01
                  3.4273972411           0.14953671029
                  1.1785525134           0.34949305230
            P    1   1.00
                  0.41642204972           .45843153697
            P    1   1.00
                  0.14260826011           .24428771672
            D    1   1.00
                  1.65400000             1.0000000
            D    1   1.00
                  0.46900000             1.0000000
            F    1   1.00
                  1.09300000             1.0000000
 Initial command:
 /software/commercial/gaussian/g16/AVX2/g16/l1.exe "/scratch1/svicchi/G09-55812.pbs02/Gau-3400488.inp" -scrdir="/scratch1/svicchi/G09-55812.pbs02/"
 Entering Link 1 = /software/commercial/gaussian/g16/AVX2/g16/l1.exe PID=   3400489.
  
 Copyright (c) 1988-2021, Gaussian, Inc.  All Rights Reserved.
  
 This is part of the Gaussian(R) 16 program.  It is based on
 the Gaussian(R) 09 system (copyright 2009, Gaussian, Inc.),
 the Gaussian(R) 03 system (copyright 2003, Gaussian, Inc.),
 the Gaussian(R) 98 system (copyright 1998, Gaussian, Inc.),
 the Gaussian(R) 94 system (copyright 1995, Gaussian, Inc.),
 the Gaussian 92(TM) system (copyright 1992, Gaussian, Inc.),
 the Gaussian 90(TM) system (copyright 1990, Gaussian, Inc.),
 the Gaussian 88(TM) system (copyright 1988, Gaussian, Inc.),
 the Gaussian 86(TM) system (copyright 1986, Carnegie Mellon
 University), and the Gaussian 82(TM) system (copyright 1983,
 Carnegie Mellon University). Gaussian is a federally registered
 trademark of Gaussian, Inc.
  
 This software contains proprietary and confidential information,
 including trade secrets, belonging to Gaussian, Inc.
  
 This software is provided under written license and may be
 used, copied, transmitted, or stored only in accord with that
 written license.
  
 The following legend is applicable only to US Government
 contracts under FAR:
  
                    RESTRICTED RIGHTS LEGEND
  
 Use, reproduction and disclosure by the US Government is
 subject to restrictions as set forth in subparagraphs (a)
 and (c) of the Commercial Computer Software - Restricted
 Rights clause in FAR 52.227-19.
  
 Gaussian, Inc.
 340 Quinnipiac St., Bldg. 40, Wallingford CT 06492
  
  
 ---------------------------------------------------------------
 Warning -- This program may not be used in any manner that
 competes with the business of Gaussian, Inc. or will provide
 assistance to any competitor of Gaussian, Inc.  The licensee
 of this program is prohibited from giving any competitor of
 Gaussian, Inc. access to this program.  By using this program,
 the user acknowledges that Gaussian, Inc. is engaged in the
 business of creating and licensing software in the field of
 computational chemistry and represents and warrants to the
 licensee that it is not a competitor of Gaussian, Inc. and that
 it will not use this program in any manner prohibited above.
 ---------------------------------------------------------------
  

 Cite this work as:
 Gaussian 16, Revision C.02,
 M. J. Frisch, G. W. Trucks, H. B. Schlegel, G. E. Scuseria, 
 M. A. Robb, J. R. Cheeseman, G. Scalmani, V. Barone, 
 G. A. Petersson, H. Nakatsuji, X. Li, M. Caricato, A. V. Marenich, 
 J. Bloino, B. G. Janesko, R. Gomperts, B. Mennucci, H. P. Hratchian, 
 J. V. Ortiz, A. F. Izmaylov, J. L. Sonnenberg, D. Williams-Young, 
 F. Ding, F. Lipparini, F. Egidi, J. Goings, B. Peng, A. Petrone, 
 T. Henderson, D. Ranasinghe, V. G. Zakrzewski, J. Gao, N. Rega, 
 G. Zheng, W. Liang, M. Hada, M. Ehara, K. Toyota, R. Fukuda, 
 J. Hasegawa, M. Ishida, T. Nakajima, Y. Honda, O. Kitao, H. Nakai, 
 T. Vreven, K. Throssell, J. A. Montgomery, Jr., J. E. Peralta, 
 F. Ogliaro, M. J. Bearpark, J. J. Heyd, E. N. Brothers, K. N. Kudin, 
 V. N. Staroverov, T. A. Keith, R. Kobayashi, J. Normand, 
 K. Raghavachari, A. P. Rendell, J. C. Burant, S. S. Iyengar, 
 J. Tomasi, M. Cossi, J. M. Millam, M. Klene, C. Adamo, R. Cammi, 
 J. W. Ochterski, R. L. Martin, K. Morokuma, O. Farkas, 
 J. B. Foresman, and D. J. Fox, Gaussian, Inc., Wallingford CT, 2019.
 
 ******************************************
 Gaussian 16:  ES64L-G16RevC.02  7-Dec-2021
                22-Jan-2023 
 ******************************************
 %NProcShared=2
 Will use up to    2 processors via shared memory.
 %mem=110gb
 %chk=/scratch1/svicchi/G09-55812.pbs02/02-freq/FeFeFe-B-0xH2O-freq.chk
 ----------------------------------------------------------------------
 #p freq=raman scale=0.967 guess=read geom=allcheck gen um06l int=grid=
 ultrafine scf=(xqc,intrep,maxconventionalcycle=150) pop=(hirshfeld) no
 symm
 ----------------------------------------------------------------------
 1/10=4,29=7,30=1,38=1,114=967000/1,3;
 2/12=2,15=1,40=1/2;
 3/5=7,11=2,14=-4,25=1,30=1,71=2,74=-53,75=-5,116=2,140=1/1,2,3;
 4/5=1/1;
 5/5=2,8=3,13=1,17=20,38=6,85=150,98=1/2,8;
 8/6=4,10=90,11=11/1;
 10/13=10,15=4,31=1/2;
 11/6=3,8=1,9=11,15=111,16=1,31=1/1,2,10;
 10/6=1,31=1/2;
 6/7=2,8=2,9=2,10=2,28=1,79=1/1;
 7/8=1,10=1,25=1,30=1/1,2,3,16;
 1/10=4,30=1/3;
 99//99;
 Leave Link    1 at Sun Jan 22 12:28:12 2023, MaxMem= 14763950080 cpu:               0.0 elap:               0.1
 (Enter /software/commercial/gaussian/g16/AVX2/g16/l101.exe)
 Structure from the checkpoint file:  "/scratch1/svicchi/G09-55812.pbs02/02-freq/FeFeFe-B-0xH2O-freq.chk"
 --------
 FeFeFe-B
 --------
 Charge =  0 Multiplicity =15
 No Z-Matrix found in chk file; cartesian coordinates used.
  O                                                 1.713511119925     -2.143780969582     -1.638333220611
  O                                                -0.475155036274     -2.509276721300     -1.204899571027
  C                                                 0.584590016846     -2.706089754045     -1.811096102305
  H                                                 0.575286060716     -3.466052284878     -2.610925363905
  O                                                 1.952172581635      2.037445248969      1.157128381436
  O                                                 3.122125574542      0.114603304064      1.127592670793
  C                                                 2.900296417078      1.296706162305      1.494662137507
  H                                                 3.631023923428      1.723742248664      2.200523337608
  O                                                -2.117665691750     -0.096457253000     -1.453852628500
  O                                                 2.679655458887      0.512148077340     -1.570821077670
  O                                                 1.399190383582      2.363167478574     -1.531321290498
  C                                                 2.335444154356      1.645941992941     -1.967756749558
  H                                                 2.916022820567      2.072315347509     -2.801826377796
  O                                                -0.540188860808     -2.096825705748      1.713949459201
  O                                                 1.647318523508     -2.249057782005      1.170543906465
  C                                                 0.633188718442     -2.472464176034      1.886434974717
  H                                                 0.815056662556     -3.088765197562      2.783203217402
  Fe                                               -1.392864162134     -1.133895480974      0.137953801211
  O                                                -2.097064120713      0.375188559212      1.472186513452
  Fe                                                0.250664958592      1.813181334960      0.021995154233
  O                                                -0.833522807496      2.245842941031      1.593188859623
  O                                                -1.340790187622      2.003050335495     -1.154978789362
  Fe                                                1.955245532603     -0.840346104107     -0.199966833135
  O                                                 0.281087852357     -0.048022690750     -0.013288224047
  C                                                -1.775910578947      1.469725482352      1.951195233263
  H                                                -2.371465695823      1.842262292634      2.802192454966
  C                                                -2.033783553900      1.115627396440     -1.723285177876
  H                                                -2.649567920342      1.465736685575     -2.568540035853
  N                                                -5.493930958815      0.051965330754      0.535938861336
  N                                                -4.892539747898      0.768023088481     -0.033782421723
  O                                                -2.750172406297     -2.003472955715      0.260655139652
 Recover connectivity data from disk.
 ITRead=  0  0  0  0  0  0  0  0  0  0  0  0  0  0  0  0  0  0  0  0
 ITRead=  0  0  0  0  0  0  0  0  0  0  0
 MicOpt= -1 -1 -1 -1 -1 -1 -1 -1 -1 -1 -1 -1 -1 -1 -1 -1 -1 -1 -1 -1
 MicOpt= -1 -1 -1 -1 -1 -1 -1 -1 -1 -1 -1
 NAtoms=     31 NQM=       31 NQMF=       0 NMMI=      0 NMMIF=      0
                NMic=       0 NMicF=      0.
                    Isotopes and Nuclear Properties:
 (Nuclear quadrupole moments (NQMom) in fm**2, nuclear magnetic moments (NMagM)
  in nuclear magnetons)

  Atom         1           2           3           4           5           6           7           8           9          10
 IAtWgt=          16          16          12           1          16          16          12           1          16          16
 AtmWgt=  15.9949146  15.9949146  12.0000000   1.0078250  15.9949146  15.9949146  12.0000000   1.0078250  15.9949146  15.9949146
 NucSpn=           0           0           0           1           0           0           0           1           0           0
 AtZEff=   5.6000000   5.6000000   3.6000000   1.0000000   5.6000000   5.6000000   3.6000000   1.0000000   5.6000000   5.6000000
 NQMom=    0.0000000   0.0000000   0.0000000   0.0000000   0.0000000   0.0000000   0.0000000   0.0000000   0.0000000   0.0000000
 NMagM=    0.0000000   0.0000000   0.0000000   2.7928460   0.0000000   0.0000000   0.0000000   2.7928460   0.0000000   0.0000000
 AtZNuc=   8.0000000   8.0000000   6.0000000   1.0000000   8.0000000   8.0000000   6.0000000   1.0000000   8.0000000   8.0000000

  Atom        11          12          13          14          15          16          17          18          19          20
 IAtWgt=          16          12           1          16          16          12           1          56          16          56
 AtmWgt=  15.9949146  12.0000000   1.0078250  15.9949146  15.9949146  12.0000000   1.0078250  55.9349393  15.9949146  55.9349393
 NucSpn=           0           0           1           0           0           0           1           0           0           0
 AtZEff=   5.6000000   3.6000000   1.0000000   5.6000000   5.6000000   3.6000000   1.0000000  25.2200000   5.6000000  25.2200000
 NQMom=    0.0000000   0.0000000   0.0000000   0.0000000   0.0000000   0.0000000   0.0000000   0.0000000   0.0000000   0.0000000
 NMagM=    0.0000000   0.0000000   2.7928460   0.0000000   0.0000000   0.0000000   2.7928460   0.0000000   0.0000000   0.0000000
 AtZNuc=   8.0000000   6.0000000   1.0000000   8.0000000   8.0000000   6.0000000   1.0000000  26.0000000   8.0000000  26.0000000

  Atom        21          22          23          24          25          26          27          28          29          30
 IAtWgt=          16          16          56          16          12           1          12           1          14          14
 AtmWgt=  15.9949146  15.9949146  55.9349393  15.9949146  12.0000000   1.0078250  12.0000000   1.0078250  14.0030740  14.0030740
 NucSpn=           0           0           0           0           0           1           0           1           2           2
 AtZEff=   5.6000000   5.6000000  25.2200000   5.6000000   3.6000000   1.0000000   3.6000000   1.0000000   4.5500000   4.5500000
 NQMom=    0.0000000   0.0000000   0.0000000   0.0000000   0.0000000   0.0000000   0.0000000   0.0000000   2.0440000   2.0440000
 NMagM=    0.0000000   0.0000000   0.0000000   0.0000000   0.0000000   2.7928460   0.0000000   2.7928460   0.4037610   0.4037610
 AtZNuc=   8.0000000   8.0000000  26.0000000   8.0000000   6.0000000   1.0000000   6.0000000   1.0000000   7.0000000   7.0000000

  Atom        31
 IAtWgt=          16
 AtmWgt=  15.9949146
 NucSpn=           0
 AtZEff=   5.6000000
 NQMom=    0.0000000
 NMagM=    0.0000000
 AtZNuc=   8.0000000
 Leave Link  101 at Sun Jan 22 12:28:12 2023, MaxMem= 14763950080 cpu:               0.1 elap:               0.2
 (Enter /software/commercial/gaussian/g16/AVX2/g16/l103.exe)

 GradGradGradGradGradGradGradGradGradGradGradGradGradGradGradGradGradGrad
 Berny optimization.
 Initialization pass.
 Trust Radius=3.00D-01 FncErr=1.00D-07 GrdErr=1.00D-07 EigMax=2.50D+02 EigMin=1.00D-04
 Number of steps in this run=      2 maximum allowed number of steps=      2.
 GradGradGradGradGradGradGradGradGradGradGradGradGradGradGradGradGradGrad

 Leave Link  103 at Sun Jan 22 12:28:13 2023, MaxMem= 14763950080 cpu:               0.1 elap:               0.1
 (Enter /software/commercial/gaussian/g16/AVX2/g16/l202.exe)
                          Input orientation:                          
 ---------------------------------------------------------------------
 Center     Atomic      Atomic             Coordinates (Angstroms)
 Number     Number       Type             X           Y           Z
 ---------------------------------------------------------------------
      1          8           0        1.713511   -2.143781   -1.638333
      2          8           0       -0.475155   -2.509277   -1.204900
      3          6           0        0.584590   -2.706090   -1.811096
      4          1           0        0.575286   -3.466052   -2.610925
      5          8           0        1.952173    2.037445    1.157128
      6          8           0        3.122126    0.114603    1.127593
      7          6           0        2.900296    1.296706    1.494662
      8          1           0        3.631024    1.723742    2.200523
      9          8           0       -2.117666   -0.096457   -1.453853
     10          8           0        2.679655    0.512148   -1.570821
     11          8           0        1.399190    2.363167   -1.531321
     12          6           0        2.335444    1.645942   -1.967757
     13          1           0        2.916023    2.072315   -2.801826
     14          8           0       -0.540189   -2.096826    1.713949
     15          8           0        1.647319   -2.249058    1.170544
     16          6           0        0.633189   -2.472464    1.886435
     17          1           0        0.815057   -3.088765    2.783203
     18         26           0       -1.392864   -1.133895    0.137954
     19          8           0       -2.097064    0.375189    1.472187
     20         26           0        0.250665    1.813181    0.021995
     21          8           0       -0.833523    2.245843    1.593189
     22          8           0       -1.340790    2.003050   -1.154979
     23         26           0        1.955246   -0.840346   -0.199967
     24          8           0        0.281088   -0.048023   -0.013288
     25          6           0       -1.775911    1.469725    1.951195
     26          1           0       -2.371466    1.842262    2.802192
     27          6           0       -2.033784    1.115627   -1.723285
     28          1           0       -2.649568    1.465737   -2.568540
     29          7           0       -5.493931    0.051965    0.535939
     30          7           0       -4.892540    0.768023   -0.033782
     31          8           0       -2.750172   -2.003473    0.260655
 ---------------------------------------------------------------------
                    Distance matrix (angstroms):
                    1          2          3          4          5
     1  O    0.000000
     2  O    2.260909   0.000000
     3  C    1.272989   1.236636   0.000000
     4  H    1.997472   1.998938   1.103339   0.000000
     5  O    5.035297   5.669548   5.760361   6.810472   0.000000
     6  O    3.838599   5.026499   4.799092   5.769229   2.250996
     7  C    4.802194   5.759063   5.684444   6.704132   1.249625
     8  H    5.776799   6.809997   6.708000   7.708537   2.001406
     9  O    4.347814   2.929423   3.773591   4.465980   5.285295
    10  O    2.827004   4.383576   3.847608   4.619120   3.208967
    11  O    4.519163   5.230720   5.141908   5.985329   2.763991
    12  C    3.854520   5.074176   4.693635   5.444659   3.172551
    13  H    4.535991   5.919565   5.408353   6.015730   4.074745
    14  O    4.039699   2.948563   3.749970   4.671574   4.859435
    15  O    2.811629   3.196144   3.198194   4.114589   4.297351
    16  C    3.701232   3.284224   3.705223   4.606172   4.755091
    17  H    4.609794   4.231479   4.615966   5.412620   5.496834
    18  Fe   3.718149   2.130051   3.190755   4.107178   4.720740
    19  O    5.526393   4.256468   5.240753   6.210345   4.388471
    20  Fe   4.533670   4.551454   4.888307   5.908296   2.057656
    21  O    6.016553   5.528914   6.174288   7.230841   2.827309
    22  O    5.172871   4.594879   5.129676   5.975133   4.023758
    23  Fe   1.956087   3.114814   2.820538   3.822479   3.181729
    24  O    3.014102   2.837184   3.223282   4.303161   2.917460
    25  C    6.173994   5.242648   6.096247   7.120602   3.853758
    26  H    7.231448   6.211978   7.120969   8.134088   4.630138
    27  C    4.967210   3.979696   4.633477   5.346675   5.003436
    28  H    5.738498   4.731630   5.332695   5.892709   5.948401
    29  N    7.841937   5.897338   7.075582   7.688602   7.731265
    30  N    7.395478   5.623655   6.725121   7.380121   7.062562
    31  O    4.852867   2.753070   3.988291   4.630744   6.264562
                    6          7          8          9         10
     6  O    0.000000
     7  C    1.257504   0.000000
     8  H    1.999871   1.102072   0.000000
     9  O    5.844982   5.984529   7.050888   0.000000
    10  O    2.763197   3.171971   4.073831   4.837186   0.000000
    11  O    3.885147   3.542208   4.395067   4.292322   2.251094
    12  C    3.541900   3.525531   4.365677   4.809391   1.249611
    13  H    4.394934   4.365963   5.065198   5.644345   2.001341
    14  O    4.318192   4.837467   5.677368   4.065080   5.288087
    15  O    2.786359   3.774579   4.558408   5.069147   4.025551
    16  C    3.669273   4.415870   5.166606   4.936611   5.004853
    17  H    4.280792   5.024034   5.606194   5.958809   5.949860
    18  Fe   4.787825   5.116611   6.136753   2.033584   4.713257
    19  O    5.237040   5.081664   5.929592   2.963879   5.665307
    20  Fe   3.514655   3.075068   4.022538   3.381396   3.182726
    21  O    4.517313   3.853826   4.535815   4.052142   5.035780
    22  O    5.356676   5.050380   6.004693   2.258494   4.308097
    23  Fe   2.008968   2.886500   3.891675   4.325992   2.057487
    24  O    3.065869   3.307939   4.388871   2.798498   2.914245
    25  C    5.148343   4.701624   5.418637   3.763519   5.759655
    26  H    5.997386   5.458822   6.033733   4.683692   6.812215
    27  C    5.976032   5.893481   6.917812   1.244500   4.754360
    28  H    6.985657   6.880347   7.890270   1.991456   5.505034
    29  N    8.636574   8.539999   9.424992   3.921794   8.453267
    30  N    8.124691   7.958891   8.863219   3.234788   7.730854
    31  O    6.302516   6.658960   7.640346   2.641271   6.258249
                   11         12         13         14         15
    11  O    0.000000
    12  C    1.257561   0.000000
    13  H    1.999890   1.102061   0.000000
    14  O    5.846752   5.986028   7.051196   0.000000
    15  O    5.351099   5.049106   6.005298   2.259127   0.000000
    16  C    5.970858   5.891836   6.917091   1.244054   1.261297
    17  H    6.977099   6.877547   7.889447   1.990964   1.999610
    18  Fe   4.776138   5.105076   6.122794   2.034220   3.398903
    19  O    5.019653   5.752839   6.802828   2.931410   4.582364
    20  Fe   2.008578   2.886760   3.891690   4.333164   4.446526
    21  O    3.842049   4.804432   5.779737   4.354239   5.151440
    22  O    2.789052   3.781909   4.564796   5.067612   5.693617
    23  Fe   3.513432   3.074290   4.021985   3.386593   1.989369
    24  O    3.060787   3.303005   4.383453   2.802756   2.848263
    25  C    4.796606   5.682647   6.705861   3.782008   5.114417
    26  H    5.767888   6.704175   7.708144   4.478199   5.962533
    27  C    3.657665   4.408078   5.155491   4.936118   5.765923
    28  H    4.274769   5.024317   5.603406   5.956597   6.800271
    29  N    7.558462   8.373074   9.270912   5.526714   7.529600
    30  N    6.661304   7.533575   8.386709   5.495897   7.302255
    31  O    6.284580   6.644362   7.622113   2.646659   4.497348
                   16         17         18         19         20
    16  C    0.000000
    17  H    1.103221   0.000000
    18  Fe   2.992297   3.961537   0.000000
    19  O    3.966738   4.711495   2.133872   0.000000
    20  Fe   4.689266   5.654369   3.376373   3.111705   0.000000
    21  O    4.949713   5.708940   3.721989   2.260647   1.957373
    22  O    5.759950   6.788486   3.393349   3.181805   1.988479
    23  Fe   2.960526   3.905729   3.377899   4.549158   3.161656
    24  O    3.100135   4.165525   2.001027   2.835727   1.861787
    25  C    4.620478   5.308972   3.195843   1.237174   2.819004
    26  H    5.336986   5.871058   4.112584   1.999129   3.821768
    27  C    5.746061   6.789790   2.989204   3.280746   2.958258
    28  H    6.792107   7.835066   3.957588   4.221614   3.904221
    29  N    6.763001   7.397142   4.287588   3.538324   6.030456
    30  N    6.687426   7.442236   3.986793   3.199523   5.248621
    31  O    3.782888   4.500218   1.616634   2.748161   4.860950
                   21         22         23         24         25
    21  O    0.000000
    22  O    2.805119   0.000000
    23  Fe   4.529591   4.456546   0.000000
    24  O    3.014124   2.853217   1.861566   0.000000
    25  C    1.272251   3.181522   4.887275   3.223972   0.000000
    26  H    1.997457   4.092353   5.910142   4.305363   1.103479
    27  C    3.703649   1.261242   4.696667   3.104320   3.700499
    28  H    4.607231   1.999940   5.668550   4.172472   4.603401
    29  N    5.258353   4.890247   7.538435   5.801938   4.223348
    30  N    4.615908   3.923939   7.036095   5.237631   3.761104
    31  O    4.848286   4.476897   4.868880   3.617647   3.983744
                   26         27         28         29         30
    26  H    0.000000
    27  C    4.595865   0.000000
    28  H    5.391093   1.102825   0.000000
    29  N    4.253335   4.267094   4.441502   0.000000
    30  N    3.943673   3.338822   3.455825   1.094985   0.000000
    31  O    4.625204   3.765371   4.477709   3.439305   3.515341
                   31
    31  O    0.000000
 Symmetry turned off by external request.
 Stoichiometry    C6H6Fe3N2O14(15)
 Framework group  C1[X(C6H6Fe3N2O14)]
 Deg. of freedom    87
 Full point group                 C1      NOp   1
 Rotational constants (GHZ):           0.2588995           0.1792667           0.1467270
 Leave Link  202 at Sun Jan 22 12:28:13 2023, MaxMem= 14763950080 cpu:               0.0 elap:               0.0
 (Enter /software/commercial/gaussian/g16/AVX2/g16/l301.exe)
 General basis read from cards:  (5D, 7F)
 Centers:       4      8     13     17     26     28
 S 3 1.00
     Exponent=  3.4061341000D+01 Coefficients=  6.0251978000D-03
     Exponent=  5.1235746000D+00 Coefficients=  4.5021094000D-02
     Exponent=  1.1646626000D+00 Coefficients=  2.0189726000D-01
 S 1 1.00
     Exponent=  3.2723041000D-01 Coefficients=  1.0000000000D+00
 S 1 1.00
     Exponent=  1.0307241000D-01 Coefficients=  1.0000000000D+00
 P 1 1.00
     Exponent=  8.0000000000D-01 Coefficients=  1.0000000000D+00
 ****
 Centers:       1      2      5      6      9     10     11     14     15     19
 Centers:      21     22     24     31
 S 6 1.00
     Exponent=  2.7032382631D+04 Coefficients=  2.1726302465D-04
     Exponent=  4.0523871392D+03 Coefficients=  1.6838662199D-03
     Exponent=  9.2232722710D+02 Coefficients=  8.7395616265D-03
     Exponent=  2.6124070989D+02 Coefficients=  3.5239968808D-02
     Exponent=  8.5354641351D+01 Coefficients=  1.1153519115D-01
     Exponent=  3.1035035245D+01 Coefficients=  2.5588953961D-01
 S 2 1.00
     Exponent=  1.2260860728D+01 Coefficients=  3.9768730901D-01
     Exponent=  4.9987076005D+00 Coefficients=  2.4627849430D-01
 S 1 1.00
     Exponent=  1.1703108158D+00 Coefficients=  1.0000000000D+00
 S 1 1.00
     Exponent=  4.6474740994D-01 Coefficients=  1.0000000000D+00
 S 1 1.00
     Exponent=  1.8504536357D-01 Coefficients=  1.0000000000D+00
 P 4 1.00
     Exponent=  6.3274954801D+01 Coefficients=  6.0685103418D-03
     Exponent=  1.4627049379D+01 Coefficients=  4.1912575824D-02
     Exponent=  4.4501223456D+00 Coefficients=  1.6153841088D-01
     Exponent=  1.5275799647D+00 Coefficients=  3.5706951311D-01
 P 1 1.00
     Exponent=  5.2935117943D-01 Coefficients=  4.4794207502D-01
 P 1 1.00
     Exponent=  1.7478421270D-01 Coefficients=  2.4446069663D-01
 D 1 1.00
     Exponent=  2.3140000000D+00 Coefficients=  1.0000000000D+00
 D 1 1.00
     Exponent=  6.4500000000D-01 Coefficients=  1.0000000000D+00
 F 1 1.00
     Exponent=  1.4280000000D+00 Coefficients=  1.0000000000D+00
 ****
 Centers:       3      7     12     16     25     27
 S 6 1.00
     Exponent=  1.3575349682D+04 Coefficients=  2.2245814352D-04
     Exponent=  2.0352333680D+03 Coefficients=  1.7232738252D-03
     Exponent=  4.6322562359D+02 Coefficients=  8.9255715314D-03
     Exponent=  1.3120019598D+02 Coefficients=  3.5727984502D-02
     Exponent=  4.2853015891D+01 Coefficients=  1.1076259931D-01
     Exponent=  1.5584185766D+01 Coefficients=  2.4295627626D-01
 S 2 1.00
     Exponent=  6.2067138508D+00 Coefficients=  4.1440263448D-01
     Exponent=  2.5764896527D+00 Coefficients=  2.3744968655D-01
 S 1 1.00
     Exponent=  5.7696339419D-01 Coefficients=  1.0000000000D+00
 S 1 1.00
     Exponent=  2.2972831358D-01 Coefficients=  1.0000000000D+00
 S 1 1.00
     Exponent=  9.5164440028D-02 Coefficients=  1.0000000000D+00
 P 4 1.00
     Exponent=  3.4697232244D+01 Coefficients=  5.3333657805D-03
     Exponent=  7.9582622826D+00 Coefficients=  3.5864109092D-02
     Exponent=  2.3780826883D+00 Coefficients=  1.4215873329D-01
     Exponent=  8.1433208183D-01 Coefficients=  3.4270471845D-01
 P 1 1.00
     Exponent=  2.8887547253D-01 Coefficients=  4.6445822433D-01
 P 1 1.00
     Exponent=  1.0056823671D-01 Coefficients=  2.4955789874D-01
 D 1 1.00
     Exponent=  1.0970000000D+00 Coefficients=  1.0000000000D+00
 D 1 1.00
     Exponent=  3.1800000000D-01 Coefficients=  1.0000000000D+00
 F 1 1.00
     Exponent=  7.6100000000D-01 Coefficients=  1.0000000000D+00
 ****
 Centers:      18     20     23
 S 8 1.00
     Exponent=  3.0078484637D+05 Coefficients=  2.2806273096D-04
     Exponent=  4.5088970557D+04 Coefficients=  1.7681788761D-03
     Exponent=  1.0262516317D+04 Coefficients=  9.1927083490D-03
     Exponent=  2.9052897293D+03 Coefficients=  3.7355495807D-02
     Exponent=  9.4611487137D+02 Coefficients=  1.2151108426D-01
     Exponent=  3.3987832894D+02 Coefficients=  2.8818881468D-01
     Exponent=  1.3194425588D+02 Coefficients=  4.1126612677D-01
     Exponent=  5.2111494077D+01 Coefficients=  2.1518583573D-01
 S 4 1.00
     Exponent=  3.2948839267D+02 Coefficients= -2.4745216477D-02
     Exponent=  1.0192332739D+02 Coefficients= -1.1683089050D-01
     Exponent=  1.6240462745D+01 Coefficients=  5.5293621136D-01
     Exponent=  6.8840675801D+00 Coefficients=  5.3601640182D-01
 S 2 1.00
     Exponent=  1.0470693782D+01 Coefficients= -2.2912708577D-01
     Exponent=  1.7360039648D+00 Coefficients=  7.1159319984D-01
 S 1 1.00
     Exponent=  7.2577288979D-01 Coefficients=  1.0000000000D+00
 S 1 1.00
     Exponent=  1.1595528203D-01 Coefficients=  1.0000000000D+00
 S 1 1.00
     Exponent=  4.1968227746D-02 Coefficients=  1.0000000000D+00
 P 6 1.00
     Exponent=  1.5853959970D+03 Coefficients=  2.3793960179D-03
     Exponent=  3.7538006499D+02 Coefficients=  1.9253154755D-02
     Exponent=  1.2031816501D+02 Coefficients=  9.0021836536D-02
     Exponent=  4.4788749031D+01 Coefficients=  2.5798172356D-01
     Exponent=  1.7829278584D+01 Coefficients=  4.1492649744D-01
     Exponent=  7.2247153786D+00 Coefficients=  2.4207474784D-01
 P 3 1.00
     Exponent=  2.8143219756D+01 Coefficients= -2.9041755152D-02
     Exponent=  3.8743241412D+00 Coefficients=  5.5312260343D-01
     Exponent=  1.5410752281D+00 Coefficients=  9.6771136842D-01
 P 1 1.00
     Exponent=  5.8285615250D-01 Coefficients=  1.0000000000D+00
 P 1 1.00
     Exponent=  1.3491500000D-01 Coefficients=  1.0000000000D+00
 D 4 1.00
     Exponent=  6.1996675034D+01 Coefficients=  1.1971972255D-02
     Exponent=  1.7873732552D+01 Coefficients=  7.3210135410D-02
     Exponent=  6.2744782934D+00 Coefficients=  2.3103094314D-01
     Exponent=  2.3552337175D+00 Coefficients=  3.9910706494D-01
 D 1 1.00
     Exponent=  8.5432239901D-01 Coefficients=  4.1391589765D-01
 D 1 1.00
     Exponent=  2.7869254413D-01 Coefficients=  2.1909269782D-01
 D 1 1.00
     Exponent=  9.1000000000D-02 Coefficients=  1.0000000000D+00
 F 1 1.00
     Exponent=  1.5980000000D+00 Coefficients=  1.0000000000D+00
 ****
 Centers:      29     30
 S 6 1.00
     Exponent=  1.9730800647D+04 Coefficients=  2.1887984991D-04
     Exponent=  2.9578958745D+03 Coefficients=  1.6960708803D-03
     Exponent=  6.7322133595D+02 Coefficients=  8.7954603538D-03
     Exponent=  1.9068249494D+02 Coefficients=  3.5359382605D-02
     Exponent=  6.2295441898D+01 Coefficients=  1.1095789217D-01
     Exponent=  2.2654161182D+01 Coefficients=  2.4982972552D-01
 S 2 1.00
     Exponent=  8.9791477428D+00 Coefficients=  4.0623896148D-01
     Exponent=  3.6863002370D+00 Coefficients=  2.4338217176D-01
 S 1 1.00
     Exponent=  8.4660076805D-01 Coefficients=  1.0000000000D+00
 S 1 1.00
     Exponent=  3.3647133771D-01 Coefficients=  1.0000000000D+00
 S 1 1.00
     Exponent=  1.3647653675D-01 Coefficients=  1.0000000000D+00
 P 4 1.00
     Exponent=  4.9200380510D+01 Coefficients=  5.5552416751D-03
     Exponent=  1.1346790537D+01 Coefficients=  3.8052379723D-02
     Exponent=  3.4273972411D+00 Coefficients=  1.4953671029D-01
     Exponent=  1.1785525134D+00 Coefficients=  3.4949305230D-01
 P 1 1.00
     Exponent=  4.1642204972D-01 Coefficients=  4.5843153697D-01
 P 1 1.00
     Exponent=  1.4260826011D-01 Coefficients=  2.4428771672D-01
 D 1 1.00
     Exponent=  1.6540000000D+00 Coefficients=  1.0000000000D+00
 D 1 1.00
     Exponent=  4.6900000000D-01 Coefficients=  1.0000000000D+00
 F 1 1.00
     Exponent=  1.0930000000D+00 Coefficients=  1.0000000000D+00
 ****
 Ernie: Thresh=  0.10000D-02 Tol=  0.10000D-05 Strict=F.
   853 basis functions,  1476 primitive gaussians,   984 cartesian basis functions
   130 alpha electrons      116 beta electrons
       nuclear repulsion energy      4458.1111503156 Hartrees.
 IExCor= 4134 DFT=T Ex+Corr=M06L ExCW=0 ScaHFX=  0.000000
 ScaDFX=  1.000000  1.000000  1.000000  1.000000 ScalE2=  1.000000  1.000000
 IRadAn=      5 IRanWt=     -1 IRanGd=            0 ICorTp=0 IEmpDi=  4
 NAtoms=   31 NActive=   31 NUniq=   31 SFac= 1.00D+00 NAtFMM=   60 NAOKFM=F Big=F
 Integral buffers will be    131072 words long.
 Raffenetti 2 integral format.
 Two-electron integral symmetry is turned off.
 Leave Link  301 at Sun Jan 22 12:28:13 2023, MaxMem= 14763950080 cpu:               0.1 elap:               0.1
 (Enter /software/commercial/gaussian/g16/AVX2/g16/l302.exe)
 NPDir=0 NMtPBC=     1 NCelOv=     1 NCel=       1 NClECP=     1 NCelD=      1
         NCelK=      1 NCelE2=     1 NClLst=     1 CellRange=     0.0.
 One-electron integrals computed using PRISM.
 NBasis=   853 RedAO= T EigKep=  2.02D-04  NBF=   853
 NBsUse=   853 1.00D-06 EigRej= -1.00D+00 NBFU=   853
 Precomputing XC quadrature grid using
 IXCGrd= 4 IRadAn=           5 IRanWt=          -1 IRanGd=           0 AccXCQ= 0.00D+00.
 Generated NRdTot=       0 NPtTot=           0 NUsed=           0 NTot=          32
 NSgBfM=   966   966   966   966   966 MxSgAt=    31 MxSgA2=    31.
 Leave Link  302 at Sun Jan 22 12:28:15 2023, MaxMem= 14763950080 cpu:               2.3 elap:               1.5
 (Enter /software/commercial/gaussian/g16/AVX2/g16/l303.exe)
 DipDrv:  MaxL=1.
 Leave Link  303 at Sun Jan 22 12:28:15 2023, MaxMem= 14763950080 cpu:               0.2 elap:               0.2
 (Enter /software/commercial/gaussian/g16/AVX2/g16/l401.exe)
 Initial guess from the checkpoint file:  "/scratch1/svicchi/G09-55812.pbs02/02-freq/FeFeFe-B-0xH2O-freq.chk"
 B after Tr=     0.000000    0.000000    0.000000
         Rot=    1.000000    0.000000    0.000000    0.000000 Ang=   0.00 deg.
 Guess basis will be translated and rotated to current coordinates.
 JPrj=2 DoOrth=T DoCkMO=T.
 Initial guess <Sx>= 0.0000 <Sy>= 0.0000 <Sz>= 7.0000 <S**2>=56.0878 S= 7.0058
 Leave Link  401 at Sun Jan 22 12:28:18 2023, MaxMem= 14763950080 cpu:               2.0 elap:               1.8
 (Enter /software/commercial/gaussian/g16/AVX2/g16/l502.exe)
 Two-electron integral symmetry not used.
 UHF open shell SCF:
 Using DIIS extrapolation, IDIIS=  1040.
 NGot= 14763950080 LenX= 14762000842 LenY= 14761031602
 Requested convergence on RMS density matrix=1.00D-08 within 150 cycles.
 Requested convergence on MAX density matrix=1.00D-06.
 Requested convergence on             energy=1.00D-06.
 No special actions if energy rises.
 Fock matrices will be formed incrementally for  20 cycles.

 Cycle   1  Pass 1  IDiag  1:
 FoFJK:  IHMeth= 1 ICntrl=     500 DoSepK=F KAlg= 0 I1Cent=           0 FoldK=F
 IRaf= 780000000 NMat=       1 IRICut=       1 DoRegI=T DoRafI=F ISym2E= 0 IDoP0=0 IntGTp=1.
 FoFCou: FMM=F IPFlag=           0 FMFlag=      100000 FMFlg1=           0
         NFxFlg=           0 DoJE=T BraDBF=F KetDBF=F FulRan=T
         wScrn=  0.000000 ICntrl=       500 IOpCl=  0 I1Cent=           0 NGrid=           0
         NMat0=    1 NMatS0=      1 NMatT0=    0 NMatD0=    1 NMtDS0=    0 NMtDT0=    0
 Symmetry not used in FoFCou.
 E= -5186.81285266067    
 DIIS: error= 4.02D-07 at cycle   1 NSaved=   1.
 NSaved= 1 IEnMin= 1 EnMin= -5186.81285266067     IErMin= 1 ErrMin= 4.02D-07
 ErrMax= 4.02D-07  0.00D+00 EMaxC= 1.00D-01 BMatC= 1.74D-10 BMatP= 1.74D-10
 IDIUse=1 WtCom= 1.00D+00 WtEn= 0.00D+00
 Coeff-Com:  0.100D+01
 Coeff:      0.100D+01
 Gap=     0.079 Goal=   None    Shift=    0.000
 Gap=     0.067 Goal=   None    Shift=    0.000
 RMSDP=2.27D-08 MaxDP=4.24D-06              OVMax= 1.23D-05

 Cycle   2  Pass 1  IDiag  1:
 RMSU=  2.27D-08    CP:  1.00D+00
 E= -5186.81285265970     Delta-E=        0.000000000968 Rises=F Damp=F
 DIIS: error= 3.85D-06 at cycle   2 NSaved=   2.
 NSaved= 2 IEnMin= 1 EnMin= -5186.81285266067     IErMin= 1 ErrMin= 4.02D-07
 ErrMax= 3.85D-06  0.00D+00 EMaxC= 1.00D-01 BMatC= 7.47D-09 BMatP= 1.74D-10
 IDIUse=1 WtCom= 1.00D+00 WtEn= 0.00D+00
 Coeff-Com:  0.876D+00 0.124D+00
 Coeff:      0.876D+00 0.124D+00
 Gap=     0.079 Goal=   None    Shift=    0.000
 Gap=     0.067 Goal=   None    Shift=    0.000
 RMSDP=2.08D-08 MaxDP=4.57D-06 DE= 9.68D-10 OVMax= 1.29D-05

 Cycle   3  Pass 1  IDiag  1:
 RMSU=  7.26D-09    CP:  1.00D+00  1.40D-01
 E= -5186.81285266057     Delta-E=       -0.000000000871 Rises=F Damp=F
 DIIS: error= 9.11D-07 at cycle   3 NSaved=   3.
 NSaved= 3 IEnMin= 1 EnMin= -5186.81285266067     IErMin= 1 ErrMin= 4.02D-07
 ErrMax= 9.11D-07  0.00D+00 EMaxC= 1.00D-01 BMatC= 5.41D-10 BMatP= 1.74D-10
 IDIUse=1 WtCom= 1.00D+00 WtEn= 0.00D+00
 Coeff-Com:  0.696D+00 0.120D+00 0.185D+00
 Coeff:      0.696D+00 0.120D+00 0.185D+00
 Gap=     0.079 Goal=   None    Shift=    0.000
 Gap=     0.067 Goal=   None    Shift=    0.000
 RMSDP=6.38D-09 MaxDP=9.60D-07 DE=-8.71D-10 OVMax= 2.95D-06

 SCF Done:  E(UM06L) =  -5186.81285266     A.U. after    3 cycles
            NFock=  3  Conv=0.64D-08     -V/T= 2.0017
 <Sx>= 0.0000 <Sy>= 0.0000 <Sz>= 7.0000 <S**2>=56.0878 S= 7.0058
 <L.S>=  0.00000000000    
 KE= 5.178260963568D+03 PE=-2.122391451493D+04 EE= 6.400729548383D+03
 Annihilation of the first spin contaminant:
 S**2 before annihilation    56.0878,   after    56.0006
 Leave Link  502 at Sun Jan 22 12:36:19 2023, MaxMem= 14763950080 cpu:             954.6 elap:             481.0
 (Enter /software/commercial/gaussian/g16/AVX2/g16/l508.exe)
 QCSCF skips out because SCF is already converged.
 Leave Link  508 at Sun Jan 22 12:36:19 2023, MaxMem= 14763950080 cpu:               0.0 elap:               0.0
 (Enter /software/commercial/gaussian/g16/AVX2/g16/l801.exe)
 DoSCS=F DFT=T ScalE2(SS,OS)=  1.000000  1.000000
 Range of M.O.s used for correlation:     1   853
 NBasis=   853 NAE=   130 NBE=   116 NFC=     0 NFV=     0
 NROrb=    853 NOA=   130 NOB=   116 NVA=   723 NVB=   737

 **** Warning!!: The largest alpha MO coefficient is  0.27437190D+02


 **** Warning!!: The smallest alpha delta epsilon is  0.79029046D-01


 **** Warning!!: The largest beta MO coefficient is  0.27232704D+02


 **** Warning!!: The smallest beta delta epsilon is  0.66948890D-01

 Leave Link  801 at Sun Jan 22 12:36:19 2023, MaxMem= 14763950080 cpu:               0.1 elap:               0.1
 (Enter /software/commercial/gaussian/g16/AVX2/g16/l1002.exe)
 Minotr:  UHF open shell wavefunction.
          Direct CPHF calculation.
          Differentiating once with respect to electric field.
                with respect to dipole field.
          Electric field/nuclear overlap derivatives assumed to be zero.
          Requested convergence is 1.0D-08 RMS, and 1.0D-07 maximum.
          Secondary convergence is 1.0D-12 RMS, and 1.0D-12 maximum.
          NewPWx=F KeepS1=T KeepF1=T KeepIn=T MapXYZ=F SortEE=F KeepMc=T.
         9519 words used for storage of precomputed grid.
 Two-electron integral symmetry not used.
          MDV=   14763950080 using IRadAn=       1.
          Solving linear equations simultaneously, MaxMat=     384.
          There are     3 degrees of freedom in the 1st order CPHF.  IDoFFX=0 NUNeed=     3.
      3 vectors produced by pass  0 Test12= 5.98D-12 3.33D-08 XBig12= 1.21D+03 1.04D+01.
 AX will form     3 AO Fock derivatives at one time.
 FoFJK:  IHMeth= 1 ICntrl=     500 DoSepK=F KAlg= 0 I1Cent=           0 FoldK=F
 IRaf= 780000000 NMat=       3 IRICut=       1 DoRegI=T DoRafI=F ISym2E= 0 IDoP0=0 IntGTp=1.
 FoFCou: FMM=F IPFlag=           0 FMFlag=      100000 FMFlg1=           0
         NFxFlg=           0 DoJE=T BraDBF=F KetDBF=F FulRan=T
         wScrn=  0.000000 ICntrl=       500 IOpCl=  0 I1Cent=           0 NGrid=           0
         NMat0=    3 NMatS0=      3 NMatT0=    0 NMatD0=    3 NMtDS0=    0 NMtDT0=    0
 Symmetry not used in FoFCou.
      3 vectors produced by pass  1 Test12= 5.98D-12 3.33D-08 XBig12= 6.71D+03 2.24D+01.
      3 vectors produced by pass  2 Test12= 5.98D-12 3.33D-08 XBig12= 3.23D+04 3.47D+01.
      3 vectors produced by pass  3 Test12= 5.98D-12 3.33D-08 XBig12= 5.89D+04 6.32D+01.
      3 vectors produced by pass  4 Test12= 5.98D-12 3.33D-08 XBig12= 1.02D+05 4.65D+01.
      3 vectors produced by pass  5 Test12= 5.98D-12 3.33D-08 XBig12= 7.58D+04 3.36D+01.
      3 vectors produced by pass  6 Test12= 5.98D-12 3.33D-08 XBig12= 4.21D+04 4.71D+01.
      3 vectors produced by pass  7 Test12= 5.98D-12 3.33D-08 XBig12= 4.61D+04 4.34D+01.
      3 vectors produced by pass  8 Test12= 5.98D-12 3.33D-08 XBig12= 2.87D+04 5.77D+01.
      3 vectors produced by pass  9 Test12= 5.98D-12 3.33D-08 XBig12= 3.26D+04 4.70D+01.
      3 vectors produced by pass 10 Test12= 5.98D-12 3.33D-08 XBig12= 2.13D+04 3.14D+01.
      3 vectors produced by pass 11 Test12= 5.98D-12 3.33D-08 XBig12= 1.43D+04 1.65D+01.
      3 vectors produced by pass 12 Test12= 5.98D-12 3.33D-08 XBig12= 7.36D+03 1.43D+01.
      3 vectors produced by pass 13 Test12= 5.98D-12 3.33D-08 XBig12= 2.08D+03 6.84D+00.
      3 vectors produced by pass 14 Test12= 5.98D-12 3.33D-08 XBig12= 7.63D+02 4.78D+00.
      3 vectors produced by pass 15 Test12= 5.98D-12 3.33D-08 XBig12= 2.46D+02 2.58D+00.
      3 vectors produced by pass 16 Test12= 5.98D-12 3.33D-08 XBig12= 6.85D+01 1.52D+00.
      3 vectors produced by pass 17 Test12= 5.98D-12 3.33D-08 XBig12= 1.39D+01 5.05D-01.
      3 vectors produced by pass 18 Test12= 5.98D-12 3.33D-08 XBig12= 2.19D+00 1.99D-01.
      3 vectors produced by pass 19 Test12= 5.98D-12 3.33D-08 XBig12= 3.14D-01 8.50D-02.
      3 vectors produced by pass 20 Test12= 5.98D-12 3.33D-08 XBig12= 3.95D-02 3.12D-02.
      3 vectors produced by pass 21 Test12= 5.98D-12 3.33D-08 XBig12= 4.51D-03 9.49D-03.
      3 vectors produced by pass 22 Test12= 5.98D-12 3.33D-08 XBig12= 5.10D-04 2.86D-03.
      3 vectors produced by pass 23 Test12= 5.98D-12 3.33D-08 XBig12= 4.25D-05 8.99D-04.
      3 vectors produced by pass 24 Test12= 5.98D-12 3.33D-08 XBig12= 5.23D-06 2.75D-04.
      3 vectors produced by pass 25 Test12= 5.98D-12 3.33D-08 XBig12= 4.44D-07 6.90D-05.
      3 vectors produced by pass 26 Test12= 5.98D-12 3.33D-08 XBig12= 4.59D-08 2.11D-05.
      3 vectors produced by pass 27 Test12= 5.98D-12 3.33D-08 XBig12= 3.77D-09 6.73D-06.
      2 vectors produced by pass 28 Test12= 5.98D-12 3.33D-08 XBig12= 4.01D-10 2.01D-06.
      2 vectors produced by pass 29 Test12= 5.98D-12 3.33D-08 XBig12= 4.01D-11 6.50D-07.
      1 vectors produced by pass 30 Test12= 5.98D-12 3.33D-08 XBig12= 3.82D-12 2.01D-07.
      1 vectors produced by pass 31 Test12= 5.98D-12 3.33D-08 XBig12= 4.06D-13 5.78D-08.
 InvSVY:  IOpt=1 It=  1 EMax= 2.13D-14
 Solved reduced A of dimension    90 with     3 vectors.
 End of Minotr F.D. properties file   721 does not exist.
 End of Minotr F.D. properties file   722 does not exist.
 End of Minotr F.D. properties file   788 does not exist.
 Leave Link 1002 at Sun Jan 22 14:44:02 2023, MaxMem= 14763950080 cpu:           15257.3 elap:            7662.3
 (Enter /software/commercial/gaussian/g16/AVX2/g16/l1101.exe)
 Using compressed storage, NAtomX=    31.
 Will process     32 centers per pass.
 Leave Link 1101 at Sun Jan 22 14:44:05 2023, MaxMem= 14763950080 cpu:               3.0 elap:               2.4
 (Enter /software/commercial/gaussian/g16/AVX2/g16/l1102.exe)
 Symmetrizing basis deriv contribution to polar:
 IMax=3 JMax=2 DiffMx= 0.00D+00
 Leave Link 1102 at Sun Jan 22 14:44:05 2023, MaxMem= 14763950080 cpu:               0.2 elap:               0.2
 (Enter /software/commercial/gaussian/g16/AVX2/g16/l1110.exe)
 Forming Gx(P) for the SCF density, NAtomX=    31.
 Integral derivatives from FoFJK, PRISM(SPDF).
 Do as many integral derivatives as possible in FoFJK.
 G2DrvN: MDV=   14763946689.
 G2DrvN: will do    32 centers at a time, making    1 passes.
 PxScal for G2LodP:  IOpCl= 1 ISclPx=1 IMOff=     1 NMtTot=     4 NTT=  364231 ScalPx= 1.42D+00
 Calling FoFCou, ICntrl=  3507 FMM=F I1Cent=   0 AccDes= 0.00D+00.
 FoFJK:  IHMeth= 1 ICntrl=    3507 DoSepK=F KAlg= 0 I1Cent=           0 FoldK=F
 IRaf=         0 NMat=       1 IRICut=       1 DoRegI=T DoRafI=F ISym2E= 0 IDoP0=0 IntGTp=1.
 FoFCou: FMM=F IPFlag=           0 FMFlag=      100000 FMFlg1=           0
         NFxFlg=           0 DoJE=F BraDBF=F KetDBF=F FulRan=T
         wScrn=  0.000000 ICntrl=      3507 IOpCl=  0 I1Cent=           0 NGrid=           0
         NMat0=    1 NMatS0=      1 NMatT0=    0 NMatD0=    4 NMtDS0=    3 NMtDT0=    0
 Symmetry not used in FoFCou.
 End of G2Drv F.D. properties file   721 does not exist.
 End of G2Drv F.D. properties file   722 does not exist.
 End of G2Drv F.D. properties file   788 does not exist.
 Leave Link 1110 at Sun Jan 22 16:42:21 2023, MaxMem= 14763950080 cpu:           14150.6 elap:            7094.9
 (Enter /software/commercial/gaussian/g16/AVX2/g16/l1002.exe)
 Minotr:  UHF open shell wavefunction.
          IDoAtm=1111111111111111111111111111111
          Direct CPHF calculation.
          Differentiating once with respect to electric field.
                with respect to dipole field.
          Differentiating once with respect to nuclear coordinates.
          Requested convergence is 1.0D-08 RMS, and 1.0D-07 maximum.
          Secondary convergence is 1.0D-12 RMS, and 1.0D-12 maximum.
          NewPWx=T KeepS1=F KeepF1=F KeepIn=T MapXYZ=F SortEE=F KeepMc=T.
         9519 words used for storage of precomputed grid.
 Two-electron integral symmetry not used.
          MDV=   14763950080 using IRadAn=       1.
          Solving linear equations simultaneously, MaxMat=     384.
 FoF2E skips out because all densities are zero.
 CalDSu exits because no D1Ps are significant.
 FoFJK:  IHMeth= 1 ICntrl=     500 DoSepK=F KAlg= 0 I1Cent=           0 FoldK=F
 IRaf= 780000000 NMat=      93 IRICut=       1 DoRegI=T DoRafI=F ISym2E= 0 IDoP0=3 IntGTp=3.
 FoFCou: FMM=F IPFlag=           0 FMFlag=      100000 FMFlg1=           0
         NFxFlg=           0 DoJE=F BraDBF=F KetDBF=F FulRan=T
         wScrn=  0.000000 ICntrl=       500 IOpCl=  0 I1Cent=           0 NGrid=           0
         NMat0=   93 NMatS0=     93 NMatT0=    0 NMatD0=   93 NMtDS0=    0 NMtDT0=    0
 Symmetry not used in FoFCou.
          There are    96 degrees of freedom in the 1st order CPHF.  IDoFFX=5 NUNeed=    96.
 Will reuse    3 saved solutions.
     90 vectors produced by pass  0 Test12= 1.87D-13 1.04D-09 XBig12= 6.09D-01 2.64D-01.
 AX will form    90 AO Fock derivatives at one time.
     90 vectors produced by pass  1 Test12= 1.87D-13 1.04D-09 XBig12= 2.42D-01 7.83D-02.
     90 vectors produced by pass  2 Test12= 1.87D-13 1.04D-09 XBig12= 2.06D-03 8.63D-03.
     90 vectors produced by pass  3 Test12= 1.87D-13 1.04D-09 XBig12= 8.50D-05 1.01D-03.
     90 vectors produced by pass  4 Test12= 1.87D-13 1.04D-09 XBig12= 1.82D-06 1.61D-04.
     90 vectors produced by pass  5 Test12= 1.87D-13 1.04D-09 XBig12= 2.88D-08 1.14D-05.
     90 vectors produced by pass  6 Test12= 1.87D-13 1.04D-09 XBig12= 3.21D-10 9.93D-07.
     86 vectors produced by pass  7 Test12= 1.87D-13 1.04D-09 XBig12= 2.83D-12 1.11D-07.
     38 vectors produced by pass  8 Test12= 1.87D-13 1.04D-09 XBig12= 2.38D-14 1.11D-08.
 InvSVY:  IOpt=1 It=  1 EMax= 7.77D-16
 Solved reduced A of dimension   754 with    96 vectors.
 FullF1:  Do perturbations      1 to       3.
 Isotropic polarizability for W=    0.000000      219.27 Bohr**3.
 FullF1:  Do perturbations      1 to       6.
 End of Minotr F.D. properties file   721 does not exist.
 End of Minotr F.D. properties file   722 does not exist.
 End of Minotr F.D. properties file   788 does not exist.
 Leave Link 1002 at Sun Jan 22 21:08:31 2023, MaxMem= 14763950080 cpu:           31773.9 elap:           15970.4
 (Enter /software/commercial/gaussian/g16/AVX2/g16/l601.exe)
 Copying SCF densities to generalized density rwf, IOpCl= 1 IROHF=0.

 **********************************************************************

            Population analysis using the SCF Density.

 **********************************************************************

 Alpha  occ. eigenvalues -- -255.66744-255.66743-255.63969 -30.11788 -30.11787
 Alpha  occ. eigenvalues --  -30.07984 -25.88908 -25.88908 -25.88838 -25.88837
 Alpha  occ. eigenvalues --  -25.88715 -25.88713 -25.85505 -25.85450 -25.85036
 Alpha  occ. eigenvalues --  -19.00664 -19.00663 -19.00474 -19.00472 -18.99986
 Alpha  occ. eigenvalues --  -18.99981 -18.99943 -18.99899 -18.99469 -18.99394
 Alpha  occ. eigenvalues --  -18.99380 -18.98721 -18.98693 -18.98175 -14.25142
 Alpha  occ. eigenvalues --  -14.24998 -10.20322 -10.20321 -10.19292 -10.19220
 Alpha  occ. eigenvalues --  -10.19046 -10.19020  -3.68573  -3.68571  -3.61835
 Alpha  occ. eigenvalues --   -2.42746  -2.42732  -2.42589  -2.42570  -2.42325
 Alpha  occ. eigenvalues --   -2.42320  -2.36990  -2.36725  -2.34468  -1.09391
 Alpha  occ. eigenvalues --   -1.08797  -1.08190  -1.08064  -1.07606  -1.07570
 Alpha  occ. eigenvalues --   -1.06071  -1.01482  -1.01037  -1.00502  -1.00306
 Alpha  occ. eigenvalues --   -0.99954  -0.99932  -0.96396  -0.90299  -0.61729
 Alpha  occ. eigenvalues --   -0.60576  -0.60035  -0.59874  -0.59451  -0.59394
 Alpha  occ. eigenvalues --   -0.51919  -0.51490  -0.50797  -0.50695  -0.50267
 Alpha  occ. eigenvalues --   -0.50107  -0.49831  -0.49814  -0.49078  -0.48981
 Alpha  occ. eigenvalues --   -0.48072  -0.47953  -0.47804  -0.46920  -0.46567
 Alpha  occ. eigenvalues --   -0.45638  -0.44994  -0.44175  -0.43971  -0.42718
 Alpha  occ. eigenvalues --   -0.42217  -0.41934  -0.41854  -0.41694  -0.41312
 Alpha  occ. eigenvalues --   -0.41176  -0.40654  -0.40242  -0.40032  -0.39998
 Alpha  occ. eigenvalues --   -0.39379  -0.39376  -0.39099  -0.38380  -0.36825
 Alpha  occ. eigenvalues --   -0.36695  -0.35596  -0.35025  -0.33871  -0.32715
 Alpha  occ. eigenvalues --   -0.31849  -0.31760  -0.31355  -0.30813  -0.30765
 Alpha  occ. eigenvalues --   -0.30724  -0.30385  -0.29969  -0.29805  -0.29568
 Alpha  occ. eigenvalues --   -0.29178  -0.28714  -0.27303  -0.27160  -0.26609
 Alpha  occ. eigenvalues --   -0.25830  -0.24910  -0.24590  -0.24162  -0.23984
 Alpha virt. eigenvalues --   -0.16081  -0.05965  -0.05036  -0.04399  -0.04160
 Alpha virt. eigenvalues --   -0.04021  -0.03892  -0.03800  -0.03491   0.01248
 Alpha virt. eigenvalues --    0.01985   0.05693   0.07161   0.07315   0.07526
 Alpha virt. eigenvalues --    0.07723   0.08190   0.08426   0.09528   0.10868
 Alpha virt. eigenvalues --    0.12277   0.13066   0.13793   0.14953   0.15414
 Alpha virt. eigenvalues --    0.16524   0.16684   0.17423   0.18230   0.18714
 Alpha virt. eigenvalues --    0.20145   0.20778   0.21464   0.21682   0.21910
 Alpha virt. eigenvalues --    0.22449   0.23668   0.24168   0.24550   0.24856
 Alpha virt. eigenvalues --    0.25831   0.26125   0.26459   0.26824   0.27286
 Alpha virt. eigenvalues --    0.27638   0.28696   0.28979   0.29177   0.29905
 Alpha virt. eigenvalues --    0.30526   0.31234   0.31520   0.31789   0.32559
 Alpha virt. eigenvalues --    0.33182   0.33500   0.33737   0.34222   0.34924
 Alpha virt. eigenvalues --    0.35324   0.35654   0.36077   0.36263   0.36981
 Alpha virt. eigenvalues --    0.37653   0.37766   0.38196   0.38674   0.38794
 Alpha virt. eigenvalues --    0.39337   0.39508   0.40250   0.40646   0.41251
 Alpha virt. eigenvalues --    0.41645   0.41795   0.41998   0.42325   0.43367
 Alpha virt. eigenvalues --    0.43663   0.44672   0.44894   0.45342   0.45517
 Alpha virt. eigenvalues --    0.46225   0.46642   0.47601   0.48002   0.48973
 Alpha virt. eigenvalues --    0.49652   0.50691   0.50883   0.51564   0.51816
 Alpha virt. eigenvalues --    0.52765   0.53437   0.53739   0.54037   0.54448
 Alpha virt. eigenvalues --    0.55101   0.55985   0.56530   0.56957   0.57557
 Alpha virt. eigenvalues --    0.59515   0.59745   0.60980   0.62347   0.63174
 Alpha virt. eigenvalues --    0.63805   0.64666   0.65562   0.65972   0.66360
 Alpha virt. eigenvalues --    0.66515   0.67635   0.67974   0.68524   0.68628
 Alpha virt. eigenvalues --    0.69263   0.70207   0.70478   0.71063   0.71331
 Alpha virt. eigenvalues --    0.71934   0.72291   0.72626   0.73297   0.73724
 Alpha virt. eigenvalues --    0.74057   0.74905   0.75217   0.75992   0.76222
 Alpha virt. eigenvalues --    0.77133   0.77999   0.79425   0.79844   0.80137
 Alpha virt. eigenvalues --    0.80733   0.81091   0.81571   0.82395   0.83158
 Alpha virt. eigenvalues --    0.84073   0.85427   0.86045   0.86340   0.86614
 Alpha virt. eigenvalues --    0.87976   0.88882   0.89455   0.89804   0.90582
 Alpha virt. eigenvalues --    0.90968   0.91622   0.92025   0.93238   0.94550
 Alpha virt. eigenvalues --    0.94971   0.95942   0.96127   0.96786   0.97785
 Alpha virt. eigenvalues --    0.98137   0.98305   0.98848   1.00181   1.01824
 Alpha virt. eigenvalues --    1.02170   1.02614   1.03109   1.04003   1.05275
 Alpha virt. eigenvalues --    1.06086   1.07079   1.07987   1.08809   1.09236
 Alpha virt. eigenvalues --    1.09903   1.10442   1.11386   1.12688   1.13760
 Alpha virt. eigenvalues --    1.15262   1.17189   1.18113   1.19168   1.19677
 Alpha virt. eigenvalues --    1.21955   1.22244   1.23271   1.24013   1.24383
 Alpha virt. eigenvalues --    1.25079   1.26786   1.26979   1.27627   1.29884
 Alpha virt. eigenvalues --    1.31734   1.32451   1.34352   1.36440   1.37072
 Alpha virt. eigenvalues --    1.38927   1.39179   1.40417   1.42366   1.42486
 Alpha virt. eigenvalues --    1.42959   1.44471   1.45108   1.46143   1.46625
 Alpha virt. eigenvalues --    1.47175   1.47906   1.48551   1.48797   1.49272
 Alpha virt. eigenvalues --    1.50460   1.51010   1.51809   1.53782   1.54135
 Alpha virt. eigenvalues --    1.55506   1.56058   1.57363   1.57797   1.58485
 Alpha virt. eigenvalues --    1.58608   1.60701   1.60935   1.61379   1.64215
 Alpha virt. eigenvalues --    1.65123   1.65446   1.66269   1.67146   1.69147
 Alpha virt. eigenvalues --    1.69749   1.70703   1.71802   1.72230   1.73190
 Alpha virt. eigenvalues --    1.73656   1.74363   1.74858   1.75638   1.76718
 Alpha virt. eigenvalues --    1.77438   1.79160   1.80134   1.82011   1.82586
 Alpha virt. eigenvalues --    1.84474   1.84927   1.86002   1.86684   1.87096
 Alpha virt. eigenvalues --    1.87686   1.88541   1.89477   1.89717   1.90479
 Alpha virt. eigenvalues --    1.91594   1.91963   1.93671   1.94373   1.95523
 Alpha virt. eigenvalues --    1.96137   1.97659   1.97763   1.98656   1.99609
 Alpha virt. eigenvalues --    2.00317   2.01015   2.01587   2.02014   2.03184
 Alpha virt. eigenvalues --    2.03714   2.04181   2.05652   2.06017   2.07011
 Alpha virt. eigenvalues --    2.07732   2.07937   2.10103   2.10768   2.10910
 Alpha virt. eigenvalues --    2.11451   2.11861   2.12645   2.12867   2.13933
 Alpha virt. eigenvalues --    2.14622   2.15422   2.16407   2.16542   2.16908
 Alpha virt. eigenvalues --    2.17999   2.18344   2.19943   2.20268   2.20782
 Alpha virt. eigenvalues --    2.22059   2.22870   2.23758   2.24251   2.24893
 Alpha virt. eigenvalues --    2.25280   2.25918   2.27376   2.29450   2.30469
 Alpha virt. eigenvalues --    2.31309   2.31928   2.32775   2.34725   2.35775
 Alpha virt. eigenvalues --    2.37870   2.39151   2.39723   2.41593   2.43939
 Alpha virt. eigenvalues --    2.45752   2.46888   2.52916   2.53069   2.55262
 Alpha virt. eigenvalues --    2.55559   2.56517   2.57005   2.59171   2.60964
 Alpha virt. eigenvalues --    2.61968   2.63052   2.66198   2.66836   2.67120
 Alpha virt. eigenvalues --    2.67869   2.69566   2.70275   2.70564   2.72373
 Alpha virt. eigenvalues --    2.72906   2.74679   2.78172   2.78924   2.80433
 Alpha virt. eigenvalues --    2.81593   2.82442   2.83626   2.84244   2.85850
 Alpha virt. eigenvalues --    2.87690   2.88681   2.90467   2.91547   2.92223
 Alpha virt. eigenvalues --    2.93085   2.93961   2.94721   2.95139   2.95801
 Alpha virt. eigenvalues --    2.96618   2.97681   3.00010   3.00908   3.01395
 Alpha virt. eigenvalues --    3.01589   3.02433   3.03219   3.03639   3.04180
 Alpha virt. eigenvalues --    3.04795   3.06369   3.06478   3.07154   3.09088
 Alpha virt. eigenvalues --    3.09639   3.10701   3.10962   3.11689   3.12058
 Alpha virt. eigenvalues --    3.12619   3.13058   3.13394   3.13961   3.14613
 Alpha virt. eigenvalues --    3.15070   3.15505   3.15682   3.15861   3.16745
 Alpha virt. eigenvalues --    3.17787   3.18946   3.19469   3.19898   3.20513
 Alpha virt. eigenvalues --    3.22180   3.23522   3.24024   3.24444   3.24962
 Alpha virt. eigenvalues --    3.25283   3.26194   3.26905   3.27603   3.30643
 Alpha virt. eigenvalues --    3.31359   3.32608   3.33997   3.36067   3.36574
 Alpha virt. eigenvalues --    3.37160   3.39140   3.40426   3.40635   3.41430
 Alpha virt. eigenvalues --    3.43584   3.43981   3.44451   3.45620   3.45945
 Alpha virt. eigenvalues --    3.47092   3.47395   3.48396   3.48596   3.48909
 Alpha virt. eigenvalues --    3.49573   3.51234   3.51746   3.52511   3.54770
 Alpha virt. eigenvalues --    3.55380   3.55639   3.56012   3.56659   3.57675
 Alpha virt. eigenvalues --    3.58244   3.58900   3.59893   3.60814   3.61299
 Alpha virt. eigenvalues --    3.61903   3.63841   3.64280   3.65785   3.66898
 Alpha virt. eigenvalues --    3.68610   3.69464   3.69682   3.70195   3.70886
 Alpha virt. eigenvalues --    3.71480   3.72732   3.73430   3.73768   3.76495
 Alpha virt. eigenvalues --    3.78840   3.79381   3.80711   3.80837   3.81118
 Alpha virt. eigenvalues --    3.81428   3.87234   3.88740   3.89485   3.89632
 Alpha virt. eigenvalues --    3.89965   3.90834   3.91110   3.92607   3.92638
 Alpha virt. eigenvalues --    3.94135   3.94192   3.95445   3.96760   3.99365
 Alpha virt. eigenvalues --    4.00046   4.01375   4.02047   4.02405   4.04208
 Alpha virt. eigenvalues --    4.05395   4.06022   4.09687   4.10022   4.11905
 Alpha virt. eigenvalues --    4.13331   4.14197   4.15730   4.16736   4.18232
 Alpha virt. eigenvalues --    4.18605   4.19056   4.20138   4.22378   4.22608
 Alpha virt. eigenvalues --    4.23040   4.23667   4.24495   4.24559   4.25473
 Alpha virt. eigenvalues --    4.42524   4.43120   4.43719   4.45433   4.45967
 Alpha virt. eigenvalues --    4.47024   4.47556   4.48532   4.49728   4.50646
 Alpha virt. eigenvalues --    4.51107   4.52650   4.54622   4.55788   4.56131
 Alpha virt. eigenvalues --    4.59583   4.61032   4.63002   4.66030   5.08530
 Alpha virt. eigenvalues --    5.08572   5.11265   5.14788   5.16362   5.21330
 Alpha virt. eigenvalues --    5.21797   5.22020   5.22196   5.22549   5.22797
 Alpha virt. eigenvalues --    5.23015   5.23419   5.23654   5.23680   5.23972
 Alpha virt. eigenvalues --    5.24401   5.24632   5.24956   5.25163   5.25469
 Alpha virt. eigenvalues --    5.25755   5.26159   5.26927   5.27029   5.27392
 Alpha virt. eigenvalues --    5.28083   5.28827   5.28919   5.29625   5.30414
 Alpha virt. eigenvalues --    5.30895   5.31059   5.31183   5.31411   5.33873
 Alpha virt. eigenvalues --    5.34555   5.35826   5.37068   5.38477   5.38701
 Alpha virt. eigenvalues --    5.39453   5.40692   5.42164   5.43305   5.43396
 Alpha virt. eigenvalues --    5.48257   5.49079   5.56177   5.56677   5.56804
 Alpha virt. eigenvalues --    5.56884   5.57287   5.58332   5.60185   5.60936
 Alpha virt. eigenvalues --    5.61993   5.62095   5.62458   5.64217   5.66845
 Alpha virt. eigenvalues --    5.67378   5.67604   5.67809   5.67890   5.68268
 Alpha virt. eigenvalues --    5.85865   5.86611   5.86756   5.91119   5.91661
 Alpha virt. eigenvalues --    5.92682   5.94330   6.03292   6.03990   6.04252
 Alpha virt. eigenvalues --    6.06288   6.07682   6.08341   6.13421   6.13590
 Alpha virt. eigenvalues --    6.14053   6.14353   6.15769   6.15944   6.16586
 Alpha virt. eigenvalues --    6.18635   6.18917   6.20919   6.21165   6.25185
 Alpha virt. eigenvalues --    6.31945   6.36012   6.40538   6.40604   6.41155
 Alpha virt. eigenvalues --    6.41673   6.42711   6.42834   6.45120   6.45466
 Alpha virt. eigenvalues --    6.46777   6.47553   6.47682   6.47946   6.48486
 Alpha virt. eigenvalues --    6.49478   6.49661   6.51789   6.52903   6.54118
 Alpha virt. eigenvalues --    6.55273   6.56276   6.56958   6.59098   6.59469
 Alpha virt. eigenvalues --    6.60084   6.61031   6.61835   6.63890   6.64514
 Alpha virt. eigenvalues --    6.65954   6.66831   6.68003   6.68547   6.70315
 Alpha virt. eigenvalues --    6.70759   6.71176   6.72658   6.72966   6.77588
 Alpha virt. eigenvalues --    6.79103   6.81750   6.82224   6.83962   6.84944
 Alpha virt. eigenvalues --    6.85710   6.86640   6.87413   6.87583   6.88420
 Alpha virt. eigenvalues --    6.88875   6.90549   6.91703   6.93193   6.94948
 Alpha virt. eigenvalues --    6.96538   6.98098   6.98301   6.98652   7.01755
 Alpha virt. eigenvalues --    7.02285   7.03547   7.04638   7.05689   7.09259
 Alpha virt. eigenvalues --    7.09765   7.11522   7.20236   7.21428   7.21478
 Alpha virt. eigenvalues --    7.21782   7.22755   7.24066   7.24429   7.24781
 Alpha virt. eigenvalues --    7.25190   7.25981   7.26677   7.26937   7.28697
 Alpha virt. eigenvalues --    7.30073   7.30610   7.33405   7.35421   7.37344
 Alpha virt. eigenvalues --    7.45371  23.18591  23.19631  23.20777  23.21477
 Alpha virt. eigenvalues --   23.22410  23.25081  31.49871  32.25103  43.71528
 Alpha virt. eigenvalues --   43.76328  43.84420  43.88210  43.90156  43.93059
 Alpha virt. eigenvalues --   43.93954  44.08185  44.09890  44.14419  44.15702
 Alpha virt. eigenvalues --   44.17236  44.27509  44.28163
  Beta  occ. eigenvalues -- -255.66559-255.66559-255.63853 -30.00225 -30.00223
  Beta  occ. eigenvalues --  -29.98840 -25.80470 -25.80470 -25.80318 -25.80317
  Beta  occ. eigenvalues --  -25.80269 -25.80267 -25.79551 -25.78360 -25.78045
  Beta  occ. eigenvalues --  -19.00345 -19.00344 -19.00168 -19.00168 -18.99578
  Beta  occ. eigenvalues --  -18.99571 -18.99538 -18.99493 -18.99270 -18.99197
  Beta  occ. eigenvalues --  -18.98485 -18.98455 -18.97797 -18.96505 -14.25141
  Beta  occ. eigenvalues --  -14.24996 -10.20322 -10.20321 -10.19294 -10.19222
  Beta  occ. eigenvalues --  -10.19046 -10.19019  -3.43873  -3.43869  -3.43318
  Beta  occ. eigenvalues --   -2.20016  -2.18670  -2.18621  -2.18108  -2.18103
  Beta  occ. eigenvalues --   -2.18089  -2.18077  -2.16800  -2.16178  -1.08740
  Beta  occ. eigenvalues --   -1.08145  -1.07546  -1.07419  -1.06926  -1.06888
  Beta  occ. eigenvalues --   -1.06067  -1.00709  -1.00263  -0.99731  -0.99552
  Beta  occ. eigenvalues --   -0.99143  -0.99117  -0.92060  -0.85778  -0.60979
  Beta  occ. eigenvalues --   -0.59737  -0.59419  -0.59242  -0.58621  -0.58531
  Beta  occ. eigenvalues --   -0.50785  -0.50599  -0.49703  -0.48929  -0.48863
  Beta  occ. eigenvalues --   -0.48820  -0.47984  -0.47904  -0.47643  -0.47582
  Beta  occ. eigenvalues --   -0.47379  -0.47021  -0.46925  -0.45009  -0.43476
  Beta  occ. eigenvalues --   -0.43335  -0.42855  -0.41998  -0.41761  -0.41740
  Beta  occ. eigenvalues --   -0.41382  -0.39222  -0.38846  -0.36735  -0.33831
  Beta  occ. eigenvalues --   -0.33760  -0.32965  -0.32849  -0.32603  -0.32534
  Beta  occ. eigenvalues --   -0.31619  -0.31133  -0.31079  -0.30919  -0.30369
  Beta  occ. eigenvalues --   -0.30102  -0.30028  -0.29618  -0.29259  -0.29215
  Beta  occ. eigenvalues --   -0.29154  -0.28790  -0.28184  -0.27396  -0.26482
  Beta  occ. eigenvalues --   -0.26253
  Beta virt. eigenvalues --   -0.19558  -0.19356  -0.19062  -0.18716  -0.17982
  Beta virt. eigenvalues --   -0.16487  -0.16392  -0.14681  -0.13844  -0.13116
  Beta virt. eigenvalues --   -0.12656  -0.11996  -0.11887  -0.11676  -0.07598
  Beta virt. eigenvalues --   -0.05099  -0.04706  -0.03952  -0.03901  -0.03512
  Beta virt. eigenvalues --   -0.03449  -0.03378  -0.03124   0.02233   0.03262
  Beta virt. eigenvalues --    0.06203   0.07404   0.07542   0.07720   0.07891
  Beta virt. eigenvalues --    0.08237   0.08505   0.10111   0.11129   0.13179
  Beta virt. eigenvalues --    0.13866   0.15504   0.15650   0.16548   0.16693
  Beta virt. eigenvalues --    0.17457   0.17581   0.18455   0.19421   0.20493
  Beta virt. eigenvalues --    0.20940   0.21548   0.21841   0.22095   0.23157
  Beta virt. eigenvalues --    0.24091   0.24849   0.25179   0.25822   0.26094
  Beta virt. eigenvalues --    0.26318   0.26879   0.27260   0.27785   0.28341
  Beta virt. eigenvalues --    0.29136   0.29885   0.30003   0.31070   0.31211
  Beta virt. eigenvalues --    0.31657   0.31995   0.32181   0.32821   0.33369
  Beta virt. eigenvalues --    0.33554   0.34002   0.35267   0.35446   0.35922
  Beta virt. eigenvalues --    0.36031   0.36170   0.36570   0.37070   0.37702
  Beta virt. eigenvalues --    0.38045   0.38422   0.38937   0.39203   0.39610
  Beta virt. eigenvalues --    0.39852   0.40612   0.40956   0.41564   0.41762
  Beta virt. eigenvalues --    0.42053   0.42274   0.43007   0.43646   0.43964
  Beta virt. eigenvalues --    0.45009   0.45206   0.45914   0.46436   0.46758
  Beta virt. eigenvalues --    0.46917   0.48250   0.48453   0.49233   0.50172
  Beta virt. eigenvalues --    0.51117   0.51153   0.51876   0.52323   0.53512
  Beta virt. eigenvalues --    0.53847   0.54303   0.54528   0.54902   0.55541
  Beta virt. eigenvalues --    0.56138   0.56707   0.57359   0.58309   0.59958
  Beta virt. eigenvalues --    0.60101   0.61319   0.62727   0.64050   0.64111
  Beta virt. eigenvalues --    0.64934   0.65828   0.66320   0.66768   0.66855
  Beta virt. eigenvalues --    0.68034   0.68330   0.68987   0.69137   0.69860
  Beta virt. eigenvalues --    0.70922   0.71177   0.71545   0.72085   0.72662
  Beta virt. eigenvalues --    0.72851   0.73110   0.73755   0.74370   0.74472
  Beta virt. eigenvalues --    0.75318   0.75833   0.76507   0.76934   0.77731
  Beta virt. eigenvalues --    0.78732   0.80019   0.80347   0.80558   0.81427
  Beta virt. eigenvalues --    0.81726   0.82430   0.83251   0.84014   0.84883
  Beta virt. eigenvalues --    0.86124   0.86680   0.87601   0.87889   0.88956
  Beta virt. eigenvalues --    0.89863   0.90154   0.90358   0.91008   0.92382
  Beta virt. eigenvalues --    0.92841   0.93249   0.94869   0.95600   0.96091
  Beta virt. eigenvalues --    0.96512   0.97091   0.98085   0.98731   0.98959
  Beta virt. eigenvalues --    0.99471   0.99944   1.02138   1.02953   1.03467
  Beta virt. eigenvalues --    1.03774   1.04420   1.05037   1.06240   1.07283
  Beta virt. eigenvalues --    1.08308   1.09384   1.09901   1.10329   1.11524
  Beta virt. eigenvalues --    1.12436   1.12675   1.14449   1.15219   1.16283
  Beta virt. eigenvalues --    1.17942   1.18917   1.20500   1.20752   1.22915
  Beta virt. eigenvalues --    1.23214   1.23736   1.24711   1.25191   1.25576
  Beta virt. eigenvalues --    1.27734   1.28652   1.28974   1.30108   1.32167
  Beta virt. eigenvalues --    1.33222   1.35137   1.37346   1.38068   1.39609
  Beta virt. eigenvalues --    1.39856   1.41215   1.43024   1.43302   1.44048
  Beta virt. eigenvalues --    1.44871   1.45985   1.46669   1.47843   1.48081
  Beta virt. eigenvalues --    1.48907   1.49557   1.49806   1.49887   1.51201
  Beta virt. eigenvalues --    1.52017   1.53431   1.54411   1.54988   1.56361
  Beta virt. eigenvalues --    1.57069   1.58090   1.58415   1.59315   1.59751
  Beta virt. eigenvalues --    1.61327   1.61735   1.62290   1.64885   1.65742
  Beta virt. eigenvalues --    1.66321   1.66798   1.68314   1.69856   1.71021
  Beta virt. eigenvalues --    1.71709   1.72656   1.73071   1.74292   1.74912
  Beta virt. eigenvalues --    1.75486   1.75778   1.76613   1.77423   1.78485
  Beta virt. eigenvalues --    1.80001   1.80711   1.83018   1.83505   1.85114
  Beta virt. eigenvalues --    1.85456   1.87065   1.87255   1.88278   1.88410
  Beta virt. eigenvalues --    1.89473   1.90398   1.90835   1.91537   1.92667
  Beta virt. eigenvalues --    1.92931   1.94399   1.95333   1.96202   1.96878
  Beta virt. eigenvalues --    1.98448   1.98875   1.99629   2.00345   2.01228
  Beta virt. eigenvalues --    2.02149   2.03188   2.03882   2.04294   2.05096
  Beta virt. eigenvalues --    2.06004   2.06136   2.07796   2.08073   2.08874
  Beta virt. eigenvalues --    2.09159   2.10813   2.11708   2.11995   2.12364
  Beta virt. eigenvalues --    2.12924   2.13867   2.14092   2.14999   2.15876
  Beta virt. eigenvalues --    2.15956   2.17177   2.17532   2.18052   2.19598
  Beta virt. eigenvalues --    2.20045   2.21420   2.21592   2.22855   2.23306
  Beta virt. eigenvalues --    2.24335   2.25456   2.25574   2.27084   2.28089
  Beta virt. eigenvalues --    2.28375   2.29441   2.32013   2.32515   2.33701
  Beta virt. eigenvalues --    2.34239   2.35236   2.36446   2.37768   2.38842
  Beta virt. eigenvalues --    2.40010   2.40298   2.42499   2.44527   2.46567
  Beta virt. eigenvalues --    2.47759   2.54800   2.55062   2.56150   2.56929
  Beta virt. eigenvalues --    2.57567   2.58728   2.60715   2.62111   2.62808
  Beta virt. eigenvalues --    2.63865   2.67153   2.67911   2.68681   2.69300
  Beta virt. eigenvalues --    2.70789   2.71534   2.71622   2.74377   2.74992
  Beta virt. eigenvalues --    2.76004   2.79214   2.79605   2.81401   2.82804
  Beta virt. eigenvalues --    2.84251   2.86751   2.87464   2.88364   2.89884
  Beta virt. eigenvalues --    2.90714   2.92283   2.92606   2.92889   2.95178
  Beta virt. eigenvalues --    2.95818   2.96167   2.96769   2.97082   2.97487
  Beta virt. eigenvalues --    2.99367   3.01237   3.01813   3.02496   3.02876
  Beta virt. eigenvalues --    3.03924   3.04341   3.04867   3.05836   3.06241
  Beta virt. eigenvalues --    3.07120   3.07890   3.08180   3.10015   3.11119
  Beta virt. eigenvalues --    3.11465   3.11666   3.12277   3.12975   3.13437
  Beta virt. eigenvalues --    3.13658   3.14120   3.14634   3.15010   3.15705
  Beta virt. eigenvalues --    3.16163   3.16602   3.16802   3.18296   3.18500
  Beta virt. eigenvalues --    3.20312   3.20883   3.21570   3.21934   3.23408
  Beta virt. eigenvalues --    3.24851   3.25214   3.25834   3.26233   3.26488
  Beta virt. eigenvalues --    3.27442   3.28485   3.29184   3.31992   3.32749
  Beta virt. eigenvalues --    3.33513   3.35622   3.37277   3.38606   3.39118
  Beta virt. eigenvalues --    3.42255   3.42993   3.44199   3.44417   3.45809
  Beta virt. eigenvalues --    3.46067   3.46714   3.47118   3.47752   3.48441
  Beta virt. eigenvalues --    3.49147   3.49385   3.49527   3.49904   3.50994
  Beta virt. eigenvalues --    3.53527   3.54373   3.55290   3.55545   3.58063
  Beta virt. eigenvalues --    3.58661   3.60515   3.61262   3.61712   3.62275
  Beta virt. eigenvalues --    3.63301   3.63931   3.64931   3.65984   3.67203
  Beta virt. eigenvalues --    3.67937   3.68689   3.70050   3.72138   3.72471
  Beta virt. eigenvalues --    3.72777   3.73074   3.73723   3.75269   3.76321
  Beta virt. eigenvalues --    3.77082   3.77416   3.78050   3.80132   3.80730
  Beta virt. eigenvalues --    3.81020   3.82080   3.82779   3.85013   3.88111
  Beta virt. eigenvalues --    3.91551   3.96041   3.96197   3.99725   4.02371
  Beta virt. eigenvalues --    4.03278   4.07033   4.07055   4.08047   4.08491
[...]
 0004589,-0.00053465,0.00103366,0.00003038,0.00000507,-0.00016630,0.000
 72377,-0.00759126,-0.00473556,-0.03245532,-0.20561788,-0.18198049,0.02
 017515,0.00313876,-0.01486445,0.11291907,0.06431901,-0.13035481,0.0000
 0984,0.00048632,0.00302604,0.00147102,-0.00110358,-0.00004601,-0.00387
 728,0.00221859,0.00178276,-0.18423014,0.19538745,0.51992467,0.00008528
 ,0.00015832,0.00004178,0.00018847,0.00003500,-0.00007857,-0.00019082,-
 0.00012104,-0.00001608,0.00002320,0.00000388,0.00000218,-0.00064995,0.
 00025205,-0.00038245,-0.00008520,0.00024803,-0.00001382,0.00027513,-0.
 00036894,0.00008941,-0.00007378,0.00003449,-0.00002898,0.00000037,0.00
 087297,-0.00012194,-0.00014256,0.00042354,-0.00013916,-0.00053640,-0.0
 0010373,0.00059033,0.00051818,-0.00055278,-0.00010510,-0.00006371,0.00
 004255,0.00002560,0.00058838,-0.00031618,0.00010333,0.00026905,0.00026
 751,-0.00036166,-0.00063586,-0.00007170,0.00034040,0.00006112,0.000000
 69,-0.00000943,0.00033640,-0.00030841,0.00089115,0.01424793,-0.0097183
 7,-0.00214124,0.00163132,-0.00139055,-0.00128158,-0.02179998,-0.008840
 05,0.03341345,0.00074826,0.00059238,0.00125600,0.00032618,-0.00063187,
 0.00018839,0.00003396,0.00108030,-0.00034166,-0.11858017,0.05139510,0.
 08898586,0.12384904,0.00029201,0.00024988,0.00008782,0.00053849,-0.000
 06098,-0.00029629,-0.00063446,-0.00016814,0.00007967,0.00006468,-0.000
 00958,-0.00001692,-0.00070416,0.00028306,-0.00011699,0.00001784,0.0004
 3458,0.00015836,0.00031199,-0.00055767,0.00001679,-0.00002925,0.000042
 59,-0.00002043,0.00018894,0.00117866,-0.00130434,-0.00006430,0.0003443
 0,-0.00015368,-0.00051938,-0.00012971,0.00038962,0.00033560,-0.0004753
 8,-0.00001246,-0.00003261,0.00005128,0.00002971,0.00091566,-0.00029397
 ,0.00047435,0.00031582,0.00021534,-0.00027153,-0.00079261,-0.00006765,
 0.00031557,0.00012819,-0.00005883,0.00000436,-0.00207673,0.00234593,0.
 00134605,0.00635644,-0.02703795,-0.03801001,-0.00066436,-0.00023693,-0
 .00145412,-0.02401765,0.00611384,0.01586941,0.00100391,0.00059463,0.00
 028176,-0.00000391,-0.00061830,-0.00005852,0.00051317,0.00097679,0.000
 09800,0.05156975,-0.06854088,-0.05367885,-0.03230337,0.08674029,-0.000
 02692,-0.00011220,-0.00009657,0.00004504,-0.00004196,-0.00002690,0.000
 01187,0.00006531,0.00005964,0.00000282,-0.00001047,-0.00002167,0.00074
 339,-0.00011663,0.00010734,0.00009899,-0.00015084,0.00000476,-0.000270
 22,0.00027846,-0.00015384,0.00003259,-0.00001099,0.00004758,-0.0001266
 0,0.00050154,-0.00028985,0.00007942,0.00005474,-0.00005705,0.00021659,
 0.00000807,-0.00007542,-0.00007241,0.00003246,0.00004267,0.00001183,-0
 .00001249,-0.00003248,0.00052571,-0.00040365,0.00028157,0.00013934,-0.
 00005721,-0.00001971,-0.00034273,0.00002901,0.00004213,0.00007385,-0.0
 0002804,0.00004251,0.00013528,0.00120821,0.00155691,0.00826073,-0.0245
 0468,-0.00651397,-0.00026239,-0.00038913,0.00212794,0.02124003,-0.0004
 1768,-0.00354292,-0.00023271,0.00025330,0.00027021,-0.00026468,0.00016
 439,0.00012714,0.00069943,-0.00042422,-0.00070666,0.09024314,-0.051875
 85,-0.19040593,-0.12080117,0.07636887,0.19730053,-0.00350906,-0.003524
 79,-0.00165134,-0.00646334,0.00218784,0.00220300,0.00698590,0.00251798
 ,-0.00048087,-0.00049745,-0.00014488,0.00019301,0.00286865,-0.00159281
 ,0.00169443,0.00033919,-0.00178349,-0.00019478,-0.00201324,0.00256908,
 -0.00034602,0.00031057,-0.00016551,0.00005035,-0.08175912,0.01000087,-
 0.02640343,0.00120968,-0.00353979,0.00101665,0.00542584,-0.00112625,-0
 .00137126,-0.00458227,0.00444596,0.00122169,0.00019992,-0.00020446,-0.
 00026950,-0.00352806,0.00035332,-0.00111579,-0.00191163,-0.00217349,0.
 00220880,0.00452942,0.00048411,-0.00193330,-0.00041638,0.00015583,0.00
 020386,0.00944494,0.00147845,0.00914068,-0.00334204,-0.00854290,-0.003
 41978,-0.02715616,0.00315908,-0.02400406,-0.00494039,-0.00385326,0.007
 34612,-0.20151072,-0.15379592,-0.12115973,-0.00237732,0.00643192,0.000
 19796,0.00180841,-0.01092153,0.00173391,0.00867268,0.00913136,-0.00266
 587,-0.00056618,-0.00059413,-0.00007484,0.43019820,-0.00745435,-0.0062
 1303,-0.00296040,-0.01233805,0.00511279,0.00393733,0.01508657,0.002759
 26,-0.00233133,-0.00083742,-0.00019798,0.00046060,0.00787662,-0.003843
 97,0.00434578,-0.00004134,-0.00557035,-0.00167706,-0.00455809,0.008148
 09,0.00015343,0.00073421,-0.00069430,0.00006130,-0.01634162,-0.4926077
 6,0.10569162,0.00128786,-0.00924389,0.00310881,0.01328492,-0.00381842,
 -0.00391091,-0.00817551,0.01200586,0.00130897,0.00041229,-0.00062360,-
 0.00046567,-0.00705319,0.00091212,-0.00288390,-0.00391092,-0.00327462,
 0.00333672,0.00875571,0.00034642,-0.00288018,-0.00084563,0.00044109,0.
 00024628,0.02622383,-0.01890873,0.03941405,-0.00555175,-0.01876682,-0.
 01113822,-0.03516671,0.01595354,-0.03077135,-0.01058665,-0.00871423,0.
 01451904,-0.11945872,-0.25103297,-0.09633372,0.00061444,0.01154290,0.0
 0131407,-0.00478544,-0.01982898,-0.00180288,0.01685497,0.02171029,-0.0
 0322033,-0.00103761,-0.00158042,-0.00041180,0.10148262,0.82634397,-0.0
 0151445,-0.00183616,-0.00121607,-0.00294451,0.00048496,0.00118052,0.00
 292666,0.00152770,0.00047438,-0.00029862,-0.00014316,0.00006720,0.0012
 3280,-0.00103107,0.00055937,0.00035826,-0.00072659,0.00001445,-0.00111
 662,0.00098366,-0.00031908,0.00013736,-0.00001439,0.00002985,-0.015002
 15,0.14111550,-0.13134736,0.00087112,-0.00215556,0.00027892,0.00504630
 ,-0.00082237,-0.00187524,-0.00254827,0.00298910,0.00127025,0.00019402,
 -0.00013616,-0.00032517,-0.00191734,-0.00010846,-0.00045343,-0.0008094
 0,-0.00124331,0.00122443,0.00206368,0.00040234,-0.00127241,-0.00022793
 ,0.00008194,0.00015451,0.00340710,0.01071576,0.00005052,-0.00065897,-0
 .00412650,0.00046448,-0.02098500,0.00186256,-0.01462080,-0.00049025,-0
 .00010553,0.00203471,-0.12692848,-0.13043821,-0.17694837,-0.00226515,0
 .00368459,0.00056247,0.00314277,-0.00711521,0.00078782,0.00261009,0.00
 083869,-0.00443836,-0.00038168,-0.00015680,-0.00006869,0.24635308,-0.0
 7088958,0.51357536,0.00015447,0.00017307,0.00016081,0.00021422,-0.0001
 6113,0.00001577,-0.00029124,-0.00006246,0.00000531,0.00000480,0.000024
 75,0.00000123,-0.00047033,0.00020131,-0.00037733,-0.00004071,0.0003003
 9,0.00010076,0.00031191,-0.00047547,-0.00000318,-0.00006615,0.00003640
 ,0.00000192,0.01241099,-0.00034425,-0.00562797,-0.00006244,0.00003018,
 0.00007926,-0.00015785,0.00002251,0.00035106,0.00010420,-0.00009873,-0
 .00012100,-0.00004824,0.00000930,0.00002630,0.00000948,-0.00002846,0.0
 0003694,-0.00003819,0.00006162,-0.00000587,0.00001851,-0.00005264,0.00
 003698,0.00000544,0.00000455,-0.00000077,0.00173515,-0.00093259,-0.000
 21658,-0.00001783,0.00035549,-0.00043819,0.00319795,-0.00094035,0.0004
 8663,0.00004700,0.00027396,-0.00111518,-0.01020752,-0.00800860,-0.0297
 3111,0.00023824,-0.00030668,-0.00031845,-0.00011469,0.00078131,0.00050
 048,-0.00047476,-0.00040856,0.00028650,0.00014336,-0.00008479,0.000016
 34,-0.12765240,0.04703087,-0.09129383,0.12119498,0.00052839,0.00043116
 ,0.00015281,0.00138191,-0.00049739,-0.00073249,-0.00116194,-0.00041931
 ,0.00014931,0.00013994,-0.00001104,-0.00009621,-0.00084311,0.00033982,
 -0.00042912,-0.00000762,0.00045264,0.00015766,0.00035362,-0.00074017,-
 0.00007059,-0.00007615,0.00008371,-0.00001915,0.01503581,-0.03382326,0
 .03613057,-0.00002818,0.00037734,-0.00015999,-0.00052606,0.00014429,0.
 00032957,0.00032088,-0.00048151,0.00001346,-0.00004353,0.00004736,0.00
 001818,0.00086286,-0.00015395,0.00028032,0.00045739,0.00029634,-0.0003
 9504,-0.00102116,-0.00001408,0.00036837,0.00010854,-0.00004565,-0.0000
 2258,-0.00181781,0.00142200,-0.00276475,0.00044668,0.00177054,0.001015
 08,0.00133420,-0.00088566,0.00129582,0.00104536,0.00051610,-0.00094935
 ,-0.02523544,0.00169521,-0.02337658,0.00003051,-0.00082021,-0.00000267
 ,0.00028509,0.00155171,-0.00010775,-0.00132110,-0.00151100,0.00019647,
 0.00008754,0.00020993,0.00004738,0.04798704,-0.06148124,0.05516715,-0.
 03758456,0.09179979,-0.00009282,0.00006939,0.00007475,-0.00027544,0.00
 037133,0.00011176,0.00021471,-0.00007069,-0.00018927,-0.00000202,0.000
 01008,0.00004594,-0.00052510,0.00006452,-0.00010871,-0.00009528,0.0001
 0473,0.00002089,0.00021761,-0.00029173,0.00001481,-0.00003618,0.000043
 72,-0.00004502,-0.01000540,0.01692645,0.00039274,-0.00010395,0.0000628
 0,0.00006588,-0.00057080,0.00001687,0.00042663,0.00018425,-0.00019080,
 -0.00013235,-0.00005595,0.00001675,0.00005136,0.00022419,0.00002835,0.
 00005092,0.00010816,0.00019445,-0.00019242,-0.00024114,-0.00006525,0.0
 0017910,0.00001201,-0.00000941,-0.00003018,-0.00114746,-0.00070787,0.0
 0163727,0.00027895,0.00019061,0.00026663,0.00133186,0.00014004,0.00149
 432,0.00061022,0.00011415,-0.00045960,-0.02649933,-0.00579523,-0.01052
 438,0.00039542,-0.00034732,-0.00003142,-0.00080419,0.00090431,-0.00064
 836,-0.00047059,-0.00045265,0.00006566,0.00003859,0.00004623,-0.000065
 84,-0.09001645,0.05477103,-0.18949661,0.12736867,-0.06604196,0.1968433
 4,0.00003916,0.00000631,-0.00000734,0.00008455,-0.00003849,-0.00005694
 ,-0.00008810,-0.00000057,0.00003238,0.00000900,-0.00000371,-0.00000918
 ,0.00004963,0.00000295,0.00001238,0.00002161,0.00000402,0.00001062,-0.
 00003407,0.00000752,-0.00001874,0.00000344,0.00000104,0.00000501,0.000
 13303,0.00036665,-0.00035142,0.00001819,0.00002336,-0.00002297,0.00002
 733,0.00001950,-0.00003741,-0.00001504,-0.00001383,0.00002235,0.000004
 82,0.00000066,-0.00000586,0.00009228,-0.00006542,0.00006888,0.00003781
 ,-0.00000822,-0.00000738,-0.00009028,0.00002469,-0.00000138,0.00001708
 ,-0.00000694,0.00000690,-0.00069491,0.00016684,0.00006165,0.00045571,-
 0.00000123,0.00028560,-0.00010771,-0.00005111,0.00016551,0.00029874,0.
 00021567,-0.00018720,-0.00003851,0.00022202,-0.00005812,-0.00008458,0.
 00000255,0.00001573,0.00007600,-0.00000279,-0.00002480,-0.00048372,-0.
 00048959,-0.00005607,0.00000494,-0.00000217,-0.00002849,0.00005846,-0.
 00075136,0.00039694,-0.00005620,0.00003774,-0.00009645,0.47152220,-0.0
 0000167,0.00001113,-0.00000134,-0.00002775,0.00002803,-0.00001619,0.00
 000641,-0.00001294,-0.00000620,0.00000298,-0.00000235,0.00000196,-0.00
 003845,0.00001059,-0.00003428,-0.00000603,0.00001096,-0.00000411,0.000
 01900,-0.00002227,0.00000451,-0.00000593,0.00000270,-0.00000112,-0.000
 57245,-0.00009850,0.00007658,-0.00001334,0.00003561,-0.00001600,-0.000
 07072,0.00001796,0.00000738,0.00004902,-0.00004750,-0.00001119,-0.0000
 0095,0.00000296,0.00000362,0.00003058,-0.00002502,0.00000697,0.0000284
 8,0.00002240,-0.00003580,-0.00006225,0.00000282,0.00002049,0.00000598,
 0.00000044,-0.00000025,-0.00027593,-0.00037042,0.00042606,-0.00008228,
 -0.00008324,-0.00027833,0.00023576,-0.00005181,0.00032222,0.00016795,0
 .00005147,-0.00021152,-0.00032782,-0.00014972,-0.00032937,0.00002677,-
 0.00005099,0.00003764,0.00000307,0.00010331,-0.00005350,-0.00031172,0.
 00003222,0.00023240,0.00001809,-0.00004869,-0.00006283,0.00054172,0.00
 054208,0.00003544,-0.00007392,0.00008196,-0.00013406,0.55918430,0.6677
 3946,-0.00003454,-0.00003145,-0.00001456,-0.00004305,0.00001043,0.0000
 2425,0.00006686,0.00001798,-0.00000805,-0.00000552,-0.00000044,0.00000
 210,0.00004442,-0.00002447,0.00001419,0.00000217,-0.00003333,-0.000009
 32,-0.00003140,0.00004411,-0.00000350,0.00000280,-0.00000245,0.0000005
 2,-0.00005134,-0.00022695,-0.00005522,0.00000843,-0.00003799,0.0000116
 0,0.00005116,-0.00001595,-0.00002428,-0.00003915,0.00004891,0.00000855
 ,0.00000285,-0.00000236,-0.00000201,-0.00003208,0.00000741,-0.00001980
 ,-0.00002741,-0.00001997,0.00002526,0.00005710,-0.00000336,-0.00001620
 ,-0.00000547,0.00000187,0.00000062,0.00034913,0.00026001,0.00004588,0.
 00008599,-0.00017051,0.00019533,-0.00020952,0.00010945,0.00000644,0.00
 005057,-0.00004611,0.00000141,-0.00002230,-0.00031112,-0.00024418,-0.0
 0000394,0.00006739,0.00000346,0.00000069,-0.00011265,-0.00000086,-0.00
 008403,-0.00006599,-0.00020300,0.00006546,0.00000863,-0.00002403,0.000
 15002,0.00056033,0.00036339,0.00003738,0.00003088,0.00001948,-0.445331
 28,-0.53043510,0.42195211,-0.00002952,0.00000220,0.00000721,-0.0000666
 5,0.00005338,0.00004845,0.00006811,-0.00000892,-0.00003301,-0.00000673
 ,0.00000370,0.00000982,-0.00005417,0.00000259,-0.00002792,-0.00002230,
 0.00000235,-0.00001132,0.00003861,-0.00001719,0.00001688,-0.00000559,0
 .,-0.00000400,-0.00114179,0.00062667,0.00028139,-0.00002007,-0.0000012
 2,0.00001172,-0.00005483,-0.00000667,0.00003343,0.00003368,-0.00001186
 ,-0.00002293,-0.00000420,0.00000016,0.00000638,-0.00003865,0.00004189,
 -0.00005811,-0.00001138,0.00002320,-0.00002025,0.00003837,-0.00002408,
 0.00002480,-0.00001193,0.00000558,-0.00000755,0.00033998,-0.00018051,0
 .00017426,-0.00093088,0.00015707,-0.00050011,0.00021118,0.00001441,0.0
 0001023,-0.00007126,-0.00007586,0.00006430,0.00012371,0.00002633,0.000
 12700,0.00007856,-0.00002735,0.00000177,-0.00004647,0.00003706,-0.0000
 0781,0.00006191,0.00008350,0.00003152,0.00003608,-0.00001059,0.0000331
 6,-0.00037984,0.00008824,-0.00032987,0.00002133,-0.00002683,-0.0000107
 9,-0.47060209,-0.55934300,0.44507266,0.47326855,0.00000199,-0.00001191
 ,0.00000299,0.00002459,-0.00004268,0.00001235,-0.00000612,0.00001898,0
 .00000904,-0.00000278,0.00000226,-0.00000299,0.00004515,-0.00001357,0.
 00003179,0.00000546,-0.00001743,0.00000128,-0.00002234,0.00002957,-0.0
 0000430,0.00000566,-0.00000305,0.00000123,0.00135165,-0.00015823,-0.00
 022920,0.00001092,-0.00003066,0.00001565,0.00006266,-0.00001283,-0.000
 01067,-0.00004447,0.00004102,0.00001008,0.00000147,-0.00000341,-0.0000
 0319,-0.00005098,0.00003333,-0.00001327,-0.00004051,-0.00002851,0.0000
 4559,0.00008343,-0.00000089,-0.00003084,-0.00000842,0.00000035,0.00000
 082,0.00051454,0.00048671,-0.00053006,-0.00023146,0.00016870,0.0002372
 9,-0.00023685,0.00004764,-0.00025540,-0.00007316,-0.00002067,0.0001180
 9,0.00035392,0.00027421,0.00039731,-0.00002574,0.00005203,-0.00003950,
 -0.00003620,-0.00013328,0.00006066,0.00013844,-0.00011312,-0.00015450,
 0.00004696,0.00000274,0.00003327,-0.00089607,-0.00102198,0.00016894,-0
 .00000290,-0.00013954,0.00016583,-0.55930453,-0.66755702,0.53052712,0.
 55792613,0.66922463,0.00003697,0.00002955,0.00001410,0.00005134,-0.000
 02291,-0.00003286,-0.00007245,-0.00001468,0.00001191,0.00000604,0.0000
 0041,-0.00000342,-0.00003709,0.00002534,-0.00000575,0.00000100,0.00003
 454,0.00001184,0.00002727,-0.00004304,0.00000163,-0.00000151,0.0000022
 9,-0.00000005,0.00045823,-0.00020737,0.00024530,-0.00000535,0.00003504
 ,-0.00001114,-0.00004396,0.00001579,0.00002387,0.00003237,-0.00004467,
 -0.00000651,-0.00000292,0.00000256,0.00000156,0.00004261,-0.00000876,0
 .00001945,0.00003198,0.00001846,-0.00002459,-0.00006737,0.00000641,0.0
 0001793,0.00000649,-0.00000333,-0.00000035,-0.00037461,-0.00026268,-0.
 00006622,-0.00075549,0.00015818,-0.00066717,0.00021431,-0.00012179,-0.
 00003937,-0.00001481,0.00005639,-0.00000823,0.00001378,0.00025953,0.00
 035448,-0.00000486,-0.00006207,-0.00000817,0.00001426,0.00011562,0.000
 00784,-0.00003593,0.00015817,0.00029155,0.00002296,-0.00005671,0.00002
 421,0.00012250,-0.00029503,-0.00096540,0.00000708,-0.00004427,0.000081
 57,0.44510006,0.53061012,-0.42197277,-0.44489419,-0.53055862,0.4228588
 0,0.00067990,0.00138288,0.00097601,-0.00241818,0.00091841,0.00244132,-
 0.00262748,-0.00157196,-0.00006443,0.00013952,0.00010710,0.00003413,-0
 .00035717,-0.00073531,-0.00045122,-0.00052099,-0.00036818,-0.00029031,
 0.00038398,0.00033341,0.00035339,-0.00007417,-0.00003154,-0.00011671,0
 .00220457,-0.00102328,0.00093832,-0.00064267,-0.00048563,0.00068274,-0
 .00007658,-0.00051107,0.00027762,0.00004267,0.00069132,-0.00041974,-0.
 00003046,-0.00006732,0.00012513,-0.00922975,-0.00029699,-0.00490421,-0
 .00063306,0.00036236,0.00022351,0.00089666,-0.00050046,-0.00130943,-0.
 00033958,0.00037953,0.00009661,-0.26504688,-0.15235378,0.02030053,0.00
 246477,0.00205881,0.00087081,-0.00285047,0.00399107,0.00057277,0.00259
 250,0.00118940,-0.00167380,0.00122979,0.00067089,0.00110051,0.00284995
 ,-0.00239988,-0.00086850,-0.01221223,-0.01073111,0.00148875,-0.0017967
 4,-0.00280891,-0.00013427,-0.00004201,-0.00001801,-0.00010639,0.000553
 77,-0.00083876,0.00097234,-0.00011347,-0.00075000,0.00006474,-0.000658
 76,0.00089408,-0.00012665,-0.00082171,0.00040957,0.00012128,0.28645428
 ,0.00244219,0.00165524,0.00088263,0.00483736,0.00097330,-0.00293941,-0
 .00241183,0.00029301,0.00085472,-0.00010942,-0.00009197,0.00011092,-0.
 00067053,-0.00015103,-0.00036686,-0.00033324,0.00027406,-0.00009440,0.
 00058048,-0.00036029,0.00021449,-0.00006248,0.00000384,-0.00006854,-0.
 00399864,-0.00751210,0.00578125,-0.00052915,0.00022171,0.00032012,-0.0
 0049466,-0.00010488,0.00030539,0.00040830,-0.00010397,-0.00027696,-0.0
 0003337,-0.00001892,0.00008521,0.00297966,0.00288940,0.00066516,0.0011
 7629,0.00062250,-0.00138708,-0.00120947,0.00100433,-0.00033122,-0.0005
 9500,0.00002159,-0.00004611,-0.15252091,-0.12463288,0.01595910,-0.0018
 8352,-0.00464777,-0.00309489,0.00020220,0.00218941,0.00035356,0.000233
 55,-0.00065100,-0.00051115,-0.00039540,-0.00091955,-0.00058566,0.00129
 381,-0.00350665,-0.00034339,-0.01058851,-0.00257573,0.00080514,-0.0019
 1248,-0.00065156,0.00073270,0.00020519,0.00010124,-0.00001435,-0.00006
 790,0.00160486,0.00099074,0.00026038,-0.00019591,-0.00013468,0.0004541
 4,-0.00017565,-0.00015432,0.00063961,-0.00107338,0.00021751,0.16210337
 ,0.13551873,0.00146584,0.00080147,-0.00007042,0.00467720,-0.00105729,-
 0.00258993,-0.00033615,0.00070283,0.00116621,-0.00009556,-0.00012580,0
 .00007869,0.00000891,0.00014020,0.00013008,0.00011441,0.00009092,0.000
 18922,0.00003319,-0.00010079,-0.00003242,0.00002205,0.00001791,0.00001
 479,0.00368412,0.00784773,-0.00507378,0.00001175,0.00010457,0.00003273
 ,-0.00005043,0.00001850,0.00015142,0.00003446,-0.00015151,0.00003849,-
 0.00001687,-0.00000133,-0.00000299,-0.00798695,-0.00087929,-0.00314485
 ,-0.00177192,-0.00009560,0.00119671,0.00056709,-0.00149427,0.00057385,
 0.00032616,0.00014155,0.00002369,0.02021819,0.01613666,-0.02639441,-0.
 00140697,-0.00495732,-0.00196850,0.00017604,-0.00039406,-0.00138433,-0
 .00167750,-0.00112416,0.00044254,0.00081162,0.00174834,0.00095117,-0.0
 0035861,0.00013748,-0.00122777,0.00146832,0.00084464,0.00323708,0.0000
 1598,0.00110432,0.00112191,0.00014962,0.00003241,0.00006640,0.00127096
 ,-0.00125701,0.00025435,-0.00026994,-0.00014052,0.00008111,0.00011701,
 -0.00015419,-0.00007684,-0.00002713,-0.00000679,-0.00015405,-0.0211748
 7,-0.01792961,0.03236986\\-0.00001570,0.00000679,-0.00001222,-0.000009
 71,-0.00000163,-0.00000476,-0.00000016,0.00000294,-0.00000722,-0.00000
 226,0.00000096,-0.00000299,0.00000111,-0.00000298,0.00000770,-0.000008
 46,-0.00000081,0.00000023,0.00001244,-0.00001435,-0.00000744,0.0000050
 7,-0.00000340,-0.00000355,0.00002097,-0.00003211,-0.00003858,0.0000056
 7,-0.00000318,-0.00000075,0.00000592,-0.00000067,0.00000686,-0.0000101
 4,0.00000435,-0.00000353,-0.00000341,0.00000047,-0.00000103,0.00001844
 ,-0.00005607,-0.00004999,-0.00000251,-0.00001280,-0.00001909,-0.000005
 43,0.00000504,0.00000185,-0.00000219,0.00000079,-0.00000182,-0.0000472
 6,0.00010243,0.00006702,0.00000674,-0.00001509,0.00001212,0.00000922,0
 .00000004,0.00001096,0.00000181,-0.00001283,0.00000980,0.00000241,0.00
 000634,0.00000852,0.00000576,-0.00000818,-0.00001312,0.00000413,0.0000
 0068,0.00000884,0.00000658,0.00000623,0.00000313,0.00000090,-0.0000021
 5,0.00000267,-0.00000483,0.00000855,0.00000894,-0.00000121,0.00000615,
 0.00000480,0.00003276,0.00006108,-0.00002373,-0.00002552,-0.00004886,0
 .00004406,-0.00000114,0.00000225,-0.00000768\\\@
 The archive entry for this job was punched.


 ALMOST ALL THE CHEMICAL PROCESSES WHICH OCCUR IN NATURE,
 WHETHER IN ANIMAL OR VEGETABLE ORGANISMS,
 OR IN THE NON-LIVING SURFACE OF THE EARTH ... 
 TAKE PLACE BETWEEN SUBSTANCES IN SOLUTION

                                    -- W. OSTWALD, 1890
 Job cpu time:       0 days 22 hours  1 minutes 47.1 seconds.
 Elapsed time:       0 days 11 hours  3 minutes 40.1 seconds.
 File lengths (MBytes):  RWF=   4364 Int=      0 D2E=      0 Chk=    129 Scr=      1
 Normal termination of Gaussian 16 at Sun Jan 22 23:31:58 2023.
