 Entering Gaussian System, Link 0=g16
 Input=FeFeFe-TS1-2xH2O-QST2-H2O_relax-TS-opt.gjf
 Output=FeFeFe-TS1-2xH2O-QST2-H2O_relax-TS-opt.log
 AtFile(1): /zfs/curium/svicchi/00-MOF/01-Gaussian/zw-basis-set/def2-TZVP/H.gbs
            !----------------------------------------------------------------------
            ! Basis Set Exchange
            ! Version v0.9
            ! https://www.basissetexchange.org
            !----------------------------------------------------------------------
            !   Basis set: def2-TZVP
            ! Description: def2-TZVP
            !        Role: orbital
            !     Version: 1  (Data from Turbomole 7.3)
            !----------------------------------------------------------------------
            H     0
            S    3   1.00
                 34.0613410              0.60251978D-02
                  5.1235746              0.45021094D-01
                  1.1646626              0.20189726
            S    1   1.00
                  0.32723041             1.0000000
            S    1   1.00
                  0.10307241             1.0000000
            P    1   1.00
                  0.8000000              1.0000000
 AtFile(1): /zfs/curium/svicchi/00-MOF/01-Gaussian/zw-basis-set/def2-TZVP/O.gbs
            !----------------------------------------------------------------------
            ! Basis Set Exchange
            ! Version v0.9
            ! https://www.basissetexchange.org
            !----------------------------------------------------------------------
            !   Basis set: def2-TZVP
            ! Description: def2-TZVP
            !        Role: orbital
            !     Version: 1  (Data from Turbomole 7.3)
            !----------------------------------------------------------------------
            O     0
            S    6   1.00
              27032.3826310              0.21726302465D-03
               4052.3871392              0.16838662199D-02
                922.32722710             0.87395616265D-02
                261.24070989             0.35239968808D-01
                 85.354641351            0.11153519115
                 31.035035245            0.25588953961
            S    2   1.00
                 12.260860728            0.39768730901
                  4.9987076005           0.24627849430
            S    1   1.00
                  1.1703108158           1.0000000
            S    1   1.00
                  0.46474740994          1.0000000
            S    1   1.00
                  0.18504536357          1.0000000
            P    4   1.00
                 63.274954801            0.60685103418D-02
                 14.627049379            0.41912575824D-01
                  4.4501223456           0.16153841088
                  1.5275799647           0.35706951311
            P    1   1.00
                  0.52935117943           .44794207502
            P    1   1.00
                  0.17478421270           .24446069663
            D    1   1.00
                  2.31400000             1.0000000
            D    1   1.00
                  0.64500000             1.0000000
            F    1   1.00
                  1.42800000             1.0000000
 AtFile(1): /zfs/curium/svicchi/00-MOF/01-Gaussian/zw-basis-set/def2-TZVP/C.gbs
            !----------------------------------------------------------------------
            ! Basis Set Exchange
            ! Version v0.9
            ! https://www.basissetexchange.org
            !----------------------------------------------------------------------
            !   Basis set: def2-TZVP
            ! Description: def2-TZVP
            !        Role: orbital
            !     Version: 1  (Data from Turbomole 7.3)
            !----------------------------------------------------------------------
            C     0
            S    6   1.00
              13575.3496820              0.22245814352D-03
               2035.2333680              0.17232738252D-02
                463.22562359             0.89255715314D-02
                131.20019598             0.35727984502D-01
                 42.853015891            0.11076259931
                 15.584185766            0.24295627626
            S    2   1.00
                  6.2067138508           0.41440263448
                  2.5764896527           0.23744968655
            S    1   1.00
                  0.57696339419          1.0000000
            S    1   1.00
                  0.22972831358          1.0000000
            S    1   1.00
                  0.95164440028D-01      1.0000000
            P    4   1.00
                 34.697232244            0.53333657805D-02
                  7.9582622826           0.35864109092D-01
                  2.3780826883           0.14215873329
                  0.81433208183          0.34270471845
            P    1   1.00
                  0.28887547253           .46445822433
            P    1   1.00
                  0.10056823671           .24955789874
            D    1   1.00
                  1.09700000             1.0000000
            D    1   1.00
                  0.31800000             1.0000000
            F    1   1.00
                  0.76100000             1.0000000
 AtFile(1): /zfs/curium/svicchi/00-MOF/01-Gaussian/zw-basis-set/def2-TZVP/Fe.gbs
            !----------------------------------------------------------------------
            ! Basis Set Exchange
            ! Version v0.9
            ! https://www.basissetexchange.org
            !----------------------------------------------------------------------
            !   Basis set: def2-TZVP
            ! Description: def2-TZVP
            !        Role: orbital
            !     Version: 1  (Data from Turbomole 7.3)
            !----------------------------------------------------------------------
            Fe     0
            S    8   1.00
             300784.8463700              0.22806273096D-03
              45088.9705570              0.17681788761D-02
              10262.5163170              0.91927083490D-02
               2905.2897293              0.37355495807D-01
                946.11487137             0.12151108426
                339.87832894             0.28818881468
                131.94425588             0.41126612677
                 52.111494077            0.21518583573
            S    4   1.00
                329.48839267            -0.24745216477D-01
                101.92332739            -0.11683089050
                 16.240462745            0.55293621136
                  6.8840675801           0.53601640182
            S    2   1.00
                 10.470693782           -0.22912708577
                  1.7360039648           0.71159319984
            S    1   1.00
                  0.72577288979          1.0000000
            S    1   1.00
                  0.11595528203          1.0000000
            S    1   1.00
                  0.41968227746D-01      1.0000000
            P    6   1.00
               1585.3959970              0.23793960179D-02
                375.38006499             0.19253154755D-01
                120.31816501             0.90021836536D-01
                 44.788749031            0.25798172356
                 17.829278584            0.41492649744
                  7.2247153786           0.24207474784
            P    3   1.00
                 28.143219756           -0.29041755152D-01
                  3.8743241412           0.55312260343
                  1.5410752281           0.96771136842
            P    1   1.00
                  0.58285615250          1.0000000
            P    1   1.00
                  0.1349150              1.0000000
            D    4   1.00
                 61.996675034            0.11971972255D-01
                 17.873732552            0.73210135410D-01
                  6.2744782934           0.23103094314
                  2.3552337175           0.39910706494
            D    1   1.00
                  0.85432239901           .41391589765
            D    1   1.00
                  0.27869254413           .21909269782
            D    1   1.00
                  0.0910000              1.0000000
            F    1   1.00
                  1.5980000              1.0000000
 AtFile(1): /zfs/curium/svicchi/00-MOF/01-Gaussian/zw-basis-set/def2-TZVP/N.gbs
            !----------------------------------------------------------------------
            ! Basis Set Exchange
            ! Version v0.9
            ! https://www.basissetexchange.org
            !----------------------------------------------------------------------
            !   Basis set: def2-TZVP
            ! Description: def2-TZVP
            !        Role: orbital
            !     Version: 1  (Data from Turbomole 7.3)
            !----------------------------------------------------------------------
            N     0
            S    6   1.00
              19730.8006470              0.21887984991D-03
               2957.8958745              0.16960708803D-02
                673.22133595             0.87954603538D-02
                190.68249494             0.35359382605D-01
                 62.295441898            0.11095789217
                 22.654161182            0.24982972552
            S    2   1.00
                  8.9791477428           0.40623896148
                  3.6863002370           0.24338217176
            S    1   1.00
                  0.84660076805          1.0000000
            S    1   1.00
                  0.33647133771          1.0000000
            S    1   1.00
                  0.13647653675          1.0000000
            P    4   1.00
                 49.200380510            0.55552416751D-02
                 11.346790537            0.38052379723D-01
                  3.4273972411           0.14953671029
                  1.1785525134           0.34949305230
            P    1   1.00
                  0.41642204972           .45843153697
            P    1   1.00
                  0.14260826011           .24428771672
            D    1   1.00
                  1.65400000             1.0000000
            D    1   1.00
                  0.46900000             1.0000000
            F    1   1.00
                  1.09300000             1.0000000
 Initial command:
 /software/commercial/gaussian/g16/AVX2/g16/l1.exe "/scratch1/svicchi/G09-176060.pbs02/Gau-915667.inp" -scrdir="/scratch1/svicchi/G09-176060.pbs02/"
 Entering Link 1 = /software/commercial/gaussian/g16/AVX2/g16/l1.exe PID=    915669.
  
 Copyright (c) 1988-2021, Gaussian, Inc.  All Rights Reserved.
  
 This is part of the Gaussian(R) 16 program.  It is based on
 the Gaussian(R) 09 system (copyright 2009, Gaussian, Inc.),
 the Gaussian(R) 03 system (copyright 2003, Gaussian, Inc.),
 the Gaussian(R) 98 system (copyright 1998, Gaussian, Inc.),
 the Gaussian(R) 94 system (copyright 1995, Gaussian, Inc.),
 the Gaussian 92(TM) system (copyright 1992, Gaussian, Inc.),
 the Gaussian 90(TM) system (copyright 1990, Gaussian, Inc.),
 the Gaussian 88(TM) system (copyright 1988, Gaussian, Inc.),
 the Gaussian 86(TM) system (copyright 1986, Carnegie Mellon
 University), and the Gaussian 82(TM) system (copyright 1983,
 Carnegie Mellon University). Gaussian is a federally registered
 trademark of Gaussian, Inc.
  
 This software contains proprietary and confidential information,
 including trade secrets, belonging to Gaussian, Inc.
  
 This software is provided under written license and may be
 used, copied, transmitted, or stored only in accord with that
 written license.
  
 The following legend is applicable only to US Government
 contracts under FAR:
  
                    RESTRICTED RIGHTS LEGEND
  
 Use, reproduction and disclosure by the US Government is
 subject to restrictions as set forth in subparagraphs (a)
 and (c) of the Commercial Computer Software - Restricted
 Rights clause in FAR 52.227-19.
  
 Gaussian, Inc.
 340 Quinnipiac St., Bldg. 40, Wallingford CT 06492
  
  
 ---------------------------------------------------------------
 Warning -- This program may not be used in any manner that
 competes with the business of Gaussian, Inc. or will provide
 assistance to any competitor of Gaussian, Inc.  The licensee
 of this program is prohibited from giving any competitor of
 Gaussian, Inc. access to this program.  By using this program,
 the user acknowledges that Gaussian, Inc. is engaged in the
 business of creating and licensing software in the field of
 computational chemistry and represents and warrants to the
 licensee that it is not a competitor of Gaussian, Inc. and that
 it will not use this program in any manner prohibited above.
 ---------------------------------------------------------------
  

 Cite this work as:
 Gaussian 16, Revision C.02,
 M. J. Frisch, G. W. Trucks, H. B. Schlegel, G. E. Scuseria, 
 M. A. Robb, J. R. Cheeseman, G. Scalmani, V. Barone, 
 G. A. Petersson, H. Nakatsuji, X. Li, M. Caricato, A. V. Marenich, 
 J. Bloino, B. G. Janesko, R. Gomperts, B. Mennucci, H. P. Hratchian, 
 J. V. Ortiz, A. F. Izmaylov, J. L. Sonnenberg, D. Williams-Young, 
 F. Ding, F. Lipparini, F. Egidi, J. Goings, B. Peng, A. Petrone, 
 T. Henderson, D. Ranasinghe, V. G. Zakrzewski, J. Gao, N. Rega, 
 G. Zheng, W. Liang, M. Hada, M. Ehara, K. Toyota, R. Fukuda, 
 J. Hasegawa, M. Ishida, T. Nakajima, Y. Honda, O. Kitao, H. Nakai, 
 T. Vreven, K. Throssell, J. A. Montgomery, Jr., J. E. Peralta, 
 F. Ogliaro, M. J. Bearpark, J. J. Heyd, E. N. Brothers, K. N. Kudin, 
 V. N. Staroverov, T. A. Keith, R. Kobayashi, J. Normand, 
 K. Raghavachari, A. P. Rendell, J. C. Burant, S. S. Iyengar, 
 J. Tomasi, M. Cossi, J. M. Millam, M. Klene, C. Adamo, R. Cammi, 
 J. W. Ochterski, R. L. Martin, K. Morokuma, O. Farkas, 
 J. B. Foresman, and D. J. Fox, Gaussian, Inc., Wallingford CT, 2019.
 
 ******************************************
 Gaussian 16:  ES64L-G16RevC.02  7-Dec-2021
                20-Feb-2023 
 ******************************************
 %NProcShared=2
 Will use up to    2 processors via shared memory.
 %mem=110gb
 %chk=/scratch1/svicchi/G09-176060.pbs02/00-opt/FeFeFe-TS1-2xH2O-QST2-H2O_relax-T
 S-opt.chk
 ----------------------------------------------------------------------
 #p opt=(TS,CalcAll,cartesian,maxcycle=500) gen um06l int=grid=ultrafin
 e scf=(xqc,intrep,maxconventionalcycle=150) pop=(hirshfeld) nosymm
 ----------------------------------------------------------------------
 1/5=1,6=500,10=4,18=10,26=4,38=1/1,3;
 2/12=2,15=1,17=6,18=5,29=2,40=1/2;
 3/5=7,11=2,25=1,30=1,71=2,74=-53,75=-5,116=2,140=1/1,2,3;
 4//1;
 5/5=2,8=3,13=1,17=20,38=5,85=150/2,8;
 8/6=4,10=90,11=11/1;
 11/6=1,8=1,9=11,15=111,16=1,31=1/1,2,10;
 10/6=1,31=1/2;
 6/7=2,8=2,9=2,10=2,18=1,28=1,79=1/1;
 7/7=1,10=1,25=1,30=1/1,2,3,16;
 1/5=1,6=500,10=4,18=10,26=4/3(3);
 2/15=1,29=1/2;
 7/7=1,8=1,9=1,25=1,30=1,44=-1/16;
 99/12=1/99;
 2/15=1,29=1/2;
 3/5=7,6=1,11=2,25=1,30=1,71=2,74=-53,75=-5,82=7,116=2,140=1/1,2,3;
 4/5=5,16=3,69=1/1;
 5/5=2,8=3,13=1,17=20,38=5,85=150/2,8;
 8/6=4,10=90,11=11/1;
 11/6=1,8=1,9=11,15=111,16=1,31=1/1,2,10;
 10/6=1,31=1/2;
 7/7=1,10=1,25=1,30=1/1,2,3,16;
 1/5=1,6=500,10=4,18=10,26=4/3(-8);
 2/15=1,29=1/2;
 6/7=2,8=2,9=2,10=2,18=1,19=2,28=1,79=1/1;
 7/7=1,8=1,9=1,25=1,30=1,44=-1/16;
 99/12=1/99;
 Leave Link    1 at Mon Feb 20 11:26:59 2023, MaxMem= 14763950080 cpu:               0.0 elap:               3.0
 (Enter /software/commercial/gaussian/g16/AVX2/g16/l101.exe)
 -------------------------
 FeFeFe-TS1-2xH2O-reactant
 -------------------------
 Symbolic Z-matrix:
 Charge =  0 Multiplicity =15
 O                    -0.01284   0.01318   0.01611 
 O                    -0.01038   0.00474   2.26641 
 C                     0.53579   0.00469   1.14932 
 H                     1.63978   0.00222   1.13784 
 O                    -4.93641  -1.64626  -0.50724 
 O                    -3.88705   0.21567  -1.19703 
 C                    -4.88166  -0.53003  -1.07642 
 H                    -5.81616  -0.17874  -1.55116 
 O                    -1.38215  -2.21358   3.46876 
 O                    -1.72572  -1.6377   -1.60029 
 O                    -2.69085  -3.36305  -0.51385 
 C                    -2.00972  -2.84769  -1.42729 
 H                    -1.60647  -3.54714  -2.18093 
 O                    -2.4744    1.64285   2.46637 
 O                    -2.2245    1.90934   0.24583 
 C                    -2.48309   2.30473   1.41418 
 H                    -2.75244   3.37212   1.50321 
 Fe                   -1.90552  -0.25803   3.02747 
 O                    -3.83349  -0.61452   3.75355 
 Fe                   -3.67545  -2.41302   1.01085 
 O                    -5.11701  -1.84268   2.36767 
 O                    -2.79868  -3.57671   2.37198 
 Fe                   -1.9709   -0.0022   -0.37806 
 O                    -2.56227  -0.91402   1.15836 
 C                    -4.89745  -1.1438    3.39621 
 H                    -5.77295  -0.9916    4.05319 
 C                    -1.86126  -3.32191   3.17409 
 H                    -1.42008  -4.20237   3.67365 
 N                    -1.8904   -0.01046   5.94175 
 N                    -1.83549   0.07081   7.13353 
 O                    -1.38307   0.36032   4.77977 
 O                    -1.50192   0.95635  -2.32494 
 H                    -1.43363   0.18351  -2.90132 
 H                    -2.34236   1.37437  -2.55271 
 O                    -5.21996  -3.99428   0.77968 
 H                    -5.63503  -3.68986  -0.03888 
 H                    -5.81513  -3.68115   1.47517 
 
 ITRead=  0  0  0  0  0  0  0  0  0  0  0  0  0  0  0  0  0  0  0  0
 ITRead=  0  0  0  0  0  0  0  0  0  0  0  0  0  0  0  0  0
 MicOpt= -1 -1 -1 -1 -1 -1 -1 -1 -1 -1 -1 -1 -1 -1 -1 -1 -1 -1 -1 -1
 MicOpt= -1 -1 -1 -1 -1 -1 -1 -1 -1 -1 -1 -1 -1 -1 -1 -1 -1
 NAtoms=     37 NQM=       37 NQMF=       0 NMMI=      0 NMMIF=      0
                NMic=       0 NMicF=      0.
                    Isotopes and Nuclear Properties:
 (Nuclear quadrupole moments (NQMom) in fm**2, nuclear magnetic moments (NMagM)
  in nuclear magnetons)

  Atom         1           2           3           4           5           6           7           8           9          10
 IAtWgt=          16          16          12           1          16          16          12           1          16          16
 AtmWgt=  15.9949146  15.9949146  12.0000000   1.0078250  15.9949146  15.9949146  12.0000000   1.0078250  15.9949146  15.9949146
 NucSpn=           0           0           0           1           0           0           0           1           0           0
 AtZEff=  -0.0000000  -0.0000000  -0.0000000  -0.0000000  -0.0000000  -0.0000000  -0.0000000  -0.0000000  -0.0000000  -0.0000000
 NQMom=    0.0000000   0.0000000   0.0000000   0.0000000   0.0000000   0.0000000   0.0000000   0.0000000   0.0000000   0.0000000
 NMagM=    0.0000000   0.0000000   0.0000000   2.7928460   0.0000000   0.0000000   0.0000000   2.7928460   0.0000000   0.0000000
 AtZNuc=   8.0000000   8.0000000   6.0000000   1.0000000   8.0000000   8.0000000   6.0000000   1.0000000   8.0000000   8.0000000

  Atom        11          12          13          14          15          16          17          18          19          20
 IAtWgt=          16          12           1          16          16          12           1          56          16          56
 AtmWgt=  15.9949146  12.0000000   1.0078250  15.9949146  15.9949146  12.0000000   1.0078250  55.9349393  15.9949146  55.9349393
 NucSpn=           0           0           1           0           0           0           1           0           0           0
 AtZEff=  -0.0000000  -0.0000000  -0.0000000  -0.0000000  -0.0000000  -0.0000000  -0.0000000  -0.0000000  -0.0000000  -0.0000000
 NQMom=    0.0000000   0.0000000   0.0000000   0.0000000   0.0000000   0.0000000   0.0000000   0.0000000   0.0000000   0.0000000
 NMagM=    0.0000000   0.0000000   2.7928460   0.0000000   0.0000000   0.0000000   2.7928460   0.0000000   0.0000000   0.0000000
 AtZNuc=   8.0000000   6.0000000   1.0000000   8.0000000   8.0000000   6.0000000   1.0000000  26.0000000   8.0000000  26.0000000

  Atom        21          22          23          24          25          26          27          28          29          30
 IAtWgt=          16          16          56          16          12           1          12           1          14          14
 AtmWgt=  15.9949146  15.9949146  55.9349393  15.9949146  12.0000000   1.0078250  12.0000000   1.0078250  14.0030740  14.0030740
 NucSpn=           0           0           0           0           0           1           0           1           2           2
 AtZEff=  -0.0000000  -0.0000000  -0.0000000  -0.0000000  -0.0000000  -0.0000000  -0.0000000  -0.0000000  -0.0000000  -0.0000000
 NQMom=    0.0000000   0.0000000   0.0000000   0.0000000   0.0000000   0.0000000   0.0000000   0.0000000   2.0440000   2.0440000
 NMagM=    0.0000000   0.0000000   0.0000000   0.0000000   0.0000000   2.7928460   0.0000000   2.7928460   0.4037610   0.4037610
 AtZNuc=   8.0000000   8.0000000  26.0000000   8.0000000   6.0000000   1.0000000   6.0000000   1.0000000   7.0000000   7.0000000

  Atom        31          32          33          34          35          36          37
 IAtWgt=          16          16           1           1          16           1           1
 AtmWgt=  15.9949146  15.9949146   1.0078250   1.0078250  15.9949146   1.0078250   1.0078250
 NucSpn=           0           0           1           1           0           1           1
 AtZEff=  -0.0000000  -0.0000000  -0.0000000  -0.0000000  -0.0000000  -0.0000000  -0.0000000
 NQMom=    0.0000000   0.0000000   0.0000000   0.0000000   0.0000000   0.0000000   0.0000000
 NMagM=    0.0000000   0.0000000   2.7928460   2.7928460   0.0000000   2.7928460   2.7928460
 AtZNuc=   8.0000000   8.0000000   1.0000000   1.0000000   8.0000000   1.0000000   1.0000000
 Leave Link  101 at Mon Feb 20 11:27:01 2023, MaxMem= 14763950080 cpu:               0.2 elap:               0.5
 (Enter /software/commercial/gaussian/g16/AVX2/g16/l103.exe)

 GradGradGradGradGradGradGradGradGradGradGradGradGradGradGradGradGradGrad
 Berny optimization.
 Initialization pass.
 No Z-matrix variables, so optimization will use Cartesian coordinates.
 Trust Radius=3.00D-01 FncErr=1.00D-07 GrdErr=1.00D-06 EigMax=2.50D+02 EigMin=1.00D-04
 Number of steps in this run=    222 maximum allowed number of steps=    222.
 Search for a saddle point of order  1.
 GradGradGradGradGradGradGradGradGradGradGradGradGradGradGradGradGradGrad

 Leave Link  103 at Mon Feb 20 11:27:03 2023, MaxMem= 14763950080 cpu:               0.1 elap:               0.5
 (Enter /software/commercial/gaussian/g16/AVX2/g16/l202.exe)
 ---------------------------------------------------------------------------------------------------
                            Z-MATRIX (ANGSTROMS AND DEGREES)
   CD    Cent   Atom    N1       Length/X        N2       Alpha/Y        N3        Beta/Z          J
 ---------------------------------------------------------------------------------------------------
      1      1  O        0  -0.012840          0.013179          0.016107
      2      2  O        0  -0.010377          0.004742          2.266407
      3      3  C        0   0.535792          0.004686          1.149319
      4      4  H        0   1.639777          0.002217          1.137841
      5      5  O        0  -4.936410         -1.646260         -0.507241
      6      6  O        0  -3.887047          0.215666         -1.197033
      7      7  C        0  -4.881665         -0.530028         -1.076419
      8      8  H        0  -5.816163         -0.178743         -1.551157
      9      9  O        0  -1.382146         -2.213584          3.468764
     10     10  O        0  -1.725721         -1.637704         -1.600291
     11     11  O        0  -2.690848         -3.363046         -0.513854
     12     12  C        0  -2.009720         -2.847693         -1.427292
     13     13  H        0  -1.606473         -3.547136         -2.180928
     14     14  O        0  -2.474397          1.642851          2.466368
     15     15  O        0  -2.224499          1.909343          0.245832
     16     16  C        0  -2.483086          2.304728          1.414180
     17     17  H        0  -2.752440          3.372124          1.503206
     18     18  Fe       0  -1.905518         -0.258032          3.027468
     19     19  O        0  -3.833494         -0.614520          3.753548
     20     20  Fe       0  -3.675452         -2.413023          1.010854
     21     21  O        0  -5.117013         -1.842679          2.367666
     22     22  O        0  -2.798680         -3.576714          2.371984
     23     23  Fe       0  -1.970898         -0.002204         -0.378058
     24     24  O        0  -2.562271         -0.914023          1.158356
     25     25  C        0  -4.897450         -1.143796          3.396213
     26     26  H        0  -5.772952         -0.991597          4.053186
     27     27  C        0  -1.861260         -3.321912          3.174088
     28     28  H        0  -1.420076         -4.202374          3.673649
     29     29  N        0  -1.890395         -0.010455          5.941751
     30     30  N        0  -1.835485          0.070808          7.133531
     31     31  O        0  -1.383070          0.360317          4.779772
     32     32  O        0  -1.501924          0.956351         -2.324938
     33     33  H        0  -1.433633          0.183505         -2.901324
     34     34  H        0  -2.342364          1.374371         -2.552706
     35     35  O        0  -5.219959         -3.994282          0.779682
     36     36  H        0  -5.635034         -3.689862         -0.038880
     37     37  H        0  -5.815131         -3.681151          1.475168
 ---------------------------------------------------------------------------------------------------
                         Z-Matrix orientation:                         
 ---------------------------------------------------------------------
 Center     Atomic      Atomic             Coordinates (Angstroms)
 Number     Number       Type             X           Y           Z
 ---------------------------------------------------------------------
      1          8           0       -0.012840    0.013179    0.016107
      2          8           0       -0.010377    0.004742    2.266407
      3          6           0        0.535792    0.004686    1.149319
      4          1           0        1.639777    0.002217    1.137841
      5          8           0       -4.936410   -1.646260   -0.507241
      6          8           0       -3.887047    0.215666   -1.197033
      7          6           0       -4.881665   -0.530028   -1.076419
      8          1           0       -5.816163   -0.178743   -1.551157
      9          8           0       -1.382146   -2.213584    3.468764
     10          8           0       -1.725721   -1.637704   -1.600291
     11          8           0       -2.690848   -3.363046   -0.513854
     12          6           0       -2.009720   -2.847693   -1.427292
     13          1           0       -1.606473   -3.547136   -2.180928
     14          8           0       -2.474397    1.642851    2.466368
     15          8           0       -2.224499    1.909343    0.245832
     16          6           0       -2.483086    2.304728    1.414180
     17          1           0       -2.752440    3.372124    1.503206
     18         26           0       -1.905518   -0.258032    3.027468
     19          8           0       -3.833494   -0.614520    3.753548
     20         26           0       -3.675452   -2.413023    1.010854
     21          8           0       -5.117013   -1.842679    2.367666
     22          8           0       -2.798680   -3.576714    2.371984
     23         26           0       -1.970898   -0.002204   -0.378058
     24          8           0       -2.562271   -0.914023    1.158356
     25          6           0       -4.897450   -1.143796    3.396213
     26          1           0       -5.772952   -0.991597    4.053186
     27          6           0       -1.861260   -3.321912    3.174088
     28          1           0       -1.420076   -4.202374    3.673649
     29          7           0       -1.890395   -0.010455    5.941751
     30          7           0       -1.835485    0.070808    7.133531
     31          8           0       -1.383070    0.360317    4.779772
     32          8           0       -1.501924    0.956351   -2.324938
     33          1           0       -1.433633    0.183505   -2.901324
     34          1           0       -2.342364    1.374371   -2.552706
     35          8           0       -5.219959   -3.994282    0.779682
     36          1           0       -5.635034   -3.689862   -0.038880
     37          1           0       -5.815131   -3.681151    1.475168
 ---------------------------------------------------------------------
                    Distance matrix (angstroms):
                    1          2          3          4          5
     1  O    0.000000
     2  O    2.250317   0.000000
     3  C    1.259063   1.243457   0.000000
     4  H    1.997386   1.999169   1.104047   0.000000
     5  O    5.221989   5.889374   5.951034   6.976389   0.000000
     6  O    4.064750   5.202737   5.011126   6.003581   2.245828
     7  C    5.019377   5.932109   5.881213   6.907636   1.254167
     8  H    6.014292   6.950871   6.904603   7.928083   2.004328
     9  O    4.330625   2.872000   3.738855   4.413048   5.363139
    10  O    2.876129   4.537773   3.920745   4.638242   3.391660
    11  O    4.341829   5.124136   4.951663   5.727775   2.826649
    12  C    3.775648   5.077122   4.610273   5.293460   3.294761
    13  H    4.476882   5.911188   5.319331   5.843824   4.183663
    14  O    3.836518   2.965599   3.671436   4.624186   5.071697
    15  O    2.922267   3.551417   3.473214   4.400618   4.534743
    16  C    3.648002   3.482889   3.804467   4.730319   5.031994
    17  H    4.582508   4.409155   4.719888   5.548093   5.830592
    18  Fe   3.567083   2.059083   3.091352   4.025858   4.858771
    19  O    5.381437   4.148650   5.124069   6.097457   4.520535
    20  Fe   4.504520   4.566703   4.857887   5.839621   2.117204
    21  O    5.918329   5.431478   6.070530   7.111281   2.887263
    22  O    5.118437   4.540111   5.043812   5.833674   4.072650
    23  Fe   1.997397   3.291943   2.935374   3.915986   3.393209
    24  O    2.943473   2.929858   3.231424   4.300828   2.991140
    25  C    6.051704   5.145783   5.990631   7.010630   3.935853
    26  H    7.105383   6.114944   7.016073   8.027170   4.682508
    27  C    4.950993   3.913602   4.572942   5.239599   5.080998
    28  H    5.755764   4.654826   5.281763   5.785465   6.031431
    29  N    6.216030   4.128299   5.371594   5.961529   7.317347
    30  N    7.347318   5.198488   6.437245   6.930400   8.422913
    31  O    4.968958   2.885779   4.121734   4.746525   6.678704
    32  O    2.930433   4.920439   4.138649   4.771949   4.676890
    33  H    3.249472   5.363120   4.507585   5.078737   4.620511
    34  H    3.725363   5.526110   4.885162   5.600035   4.476295
    35  O    6.614898   6.733668   7.018336   7.947091   2.692541
    36  H    6.732355   7.113453   7.289760   8.242511   2.209920
    37  H    7.031608   6.921491   7.350224   8.322058   2.973698
                    6          7          8          9         10
     6  O    0.000000
     7  C    1.248948   0.000000
     8  H    2.000613   1.105470   0.000000
     9  O    5.826272   5.978268   7.000049   0.000000
    10  O    2.875574   3.385465   4.343121   5.113218   0.000000
    11  O    3.834684   3.625210   4.580762   4.346862   2.255797
    12  C    3.600214   3.707122   4.650553   4.976676   1.254854
    13  H    4.508630   4.588002   5.428091   5.809277   1.999322
    14  O    4.177672   4.802883   5.534086   4.131574   5.278283
    15  O    2.777493   3.841798   4.526513   5.300507   4.029701
    16  C    3.626806   4.471253   5.105904   5.084145   5.020300
    17  H    4.306025   5.139538   5.596802   6.077932   5.981991
    18  Fe   4.690123   5.076743   6.021897   2.071918   4.832388
    19  O    5.019993   4.943115   5.679857   2.940615   5.844074
    20  Fe   3.439410   3.058975   4.017282   3.367544   3.349724
    21  O    4.296124   3.693259   4.314472   3.911422   5.223750
    22  O    5.320204   5.051000   6.003536   2.251137   4.548623
    23  Fe   2.095188   3.039551   4.024101   4.476033   2.056411
    24  O    2.929008   3.243649   4.297663   2.901644   2.972148
    25  C    4.895606   4.514576   5.123654   3.675197   5.938759
    26  H    5.707795   5.226881   5.663149   4.594995   6.982788
    27  C    5.977037   5.914750   6.917276   1.242890   5.064546
    28  H    7.023430   6.930503   7.925515   1.999676   5.872427
    29  N    7.416198   7.646722   8.460712   3.350785   7.717348
    30  N    8.580687   8.777442   9.556771   4.342175   8.900040
    31  O    6.481745   6.879524   7.747487   2.888548   6.694378
    32  O    2.740364   3.897534   4.527674   6.605287   2.702650
    33  H    2.987454   3.965896   4.600081   6.806373   2.257167
    34  H    2.359341   3.500601   3.934786   7.074853   3.218686
    35  O    4.838152   3.944694   4.510721   5.013069   4.840189
    36  H    4.432824   3.410074   3.827237   5.707015   4.683170
    37  H    5.103268   4.160713   4.628769   5.077355   5.509755
                   11         12         13         14         15
    11  O    0.000000
    12  C    1.250557   0.000000
    13  H    1.997222   1.104444   0.000000
    14  O    5.829887   5.961669   7.020443   0.000000
    15  O    5.347213   5.047263   6.003689   2.250388   0.000000
    16  C    5.990337   5.903006   6.923696   1.243083   1.260251
    17  H    7.030991   6.915604   7.922262   1.998843   1.999860
    18  Fe   4.774811   5.153842   6.167254   2.061992   3.540729
    19  O    5.202956   5.929108   6.984115   2.932525   4.611163
    20  Fe   2.048591   2.984654   3.969176   4.473384   4.623134
    21  O    4.062136   5.006698   5.993227   4.375166   5.191000
    22  O    2.895746   3.948218   4.706510   5.230481   5.911601
    23  Fe   3.439771   3.033019   3.993706   3.324226   2.026713
    24  O    2.968254   3.275663   4.358630   2.873364   2.986333
    25  C    5.008272   5.874389   6.907320   3.808044   5.137239
    26  H    5.998416   6.902365   7.921774   4.509853   5.958432
    27  C    3.780321   4.628134   5.365803   5.052294   6.006052
    28  H    4.455840   5.310597   5.894078   6.061004   7.053376
    29  N    7.318157   7.897275   8.863782   3.892655   6.020028
    30  N    8.426476   9.046308   9.995054   4.966079   7.139464
    31  O    6.602741   7.015102   7.985577   2.861420   4.864576
    32  O    4.832262   3.941367   4.507002   4.936963   2.835342
    33  H    4.456302   3.419475   3.803489   5.659063   3.675402
    34  H    5.169282   4.382127   4.990089   5.027983   2.851649
    35  O    2.909999   4.060916   4.692806   6.493095   6.641578
    36  H    3.000107   3.972384   4.564871   6.686084   6.562310
    37  H    3.717330   4.857991   5.576540   6.363016   6.757035
                   16         17         18         19         20
    16  C    0.000000
    17  H    1.104451   0.000000
    18  Fe   3.082859   4.027243   0.000000
    19  O    3.977217   4.703833   2.090782   0.000000
    20  Fe   4.882784   5.878970   3.441422   3.283590   0.000000
    21  O    5.004767   5.790740   3.641448   2.253101   2.060177
    22  O    5.967273   7.003090   3.498721   3.428433   1.993886
    23  Fe   2.965871   3.941580   3.415747   4.573222   3.262917
    24  O    3.229872   4.304200   2.086918   2.905294   1.872947
    25  C    4.652948   5.345847   3.142007   1.240896   2.965494
    26  H    5.352880   5.887950   4.067832   1.998366   3.959260
    27  C    5.928155   6.956735   3.067705   3.399331   2.965966
    28  H    6.969761   7.991185   4.026293   4.324774   3.921604
    29  N    5.119595   5.646737   2.924819   2.988103   5.768233
    30  N    6.174201   6.590907   4.119805   3.985724   6.858722
    31  O    4.039552   4.656398   1.930253   2.829845   5.210679
    32  O    4.094118   4.696215   5.503259   6.697152   5.215785
    33  H    4.921840   5.595215   5.963909   7.119234   5.203157
    34  H    4.076954   4.539780   5.830430   6.778495   5.368467
    35  O    6.897144   7.802312   5.477009   4.710515   2.222459
    36  H    6.926851   7.781968   5.923617   5.204401   2.563634
    37  H    6.851058   7.689574   5.423325   4.303734   2.530210
                   21         22         23         24         25
    21  O    0.000000
    22  O    2.895093   0.000000
    23  Fe   4.563375   4.585311   0.000000
    24  O    2.975154   2.935763   1.881942   0.000000
    25  C    1.262757   3.372384   4.910505   3.242508   0.000000
    26  H    1.998893   4.284339   5.922030   4.323717   1.105116
    27  C    3.665839   1.259782   4.863149   3.217533   3.743258
    28  H    4.576144   1.996580   5.861840   4.294713   4.639397
    29  N    5.151911   5.127029   6.320327   4.914135   4.099586
    30  N    6.094533   6.074907   7.513164   6.099248   4.981811
    31  O    4.961227   4.827174   5.203861   4.016106   4.065398
    32  O    6.551639   6.655173   2.220159   4.093406   6.976517
    33  H    6.740546   6.618941   2.586506   4.354239   7.308812
    34  H    6.500627   6.998145   2.600392   4.365442   6.946889
    35  O    2.676133   2.927863   5.275741   4.085914   3.882720
    36  H    3.077644   3.724241   5.209583   4.310514   4.338934
    37  H    2.159607   3.148676   5.634468   4.282343   3.312208
                   26         27         28         29         30
    26  H    0.000000
    27  C    4.637296   0.000000
    28  H    5.422238   1.104273   0.000000
    29  N    4.427591   4.315849   4.789329   0.000000
    30  N    5.110859   5.214250   5.513931   1.195809   0.000000
    31  O    4.650448   4.045454   4.695000   1.321002   2.414265
    32  O    7.919384   6.976528   7.912154   8.332093   9.505687
    33  H    8.281048   7.027193   7.903568   8.856987  10.043530
    34  H    7.810541   7.421772   8.409411   8.618458   9.786695
    35  O    4.476354   4.179249   4.780947   7.321464   8.267467
    36  H    4.903535   4.969901   5.640161   7.957908   8.945540
    37  H    3.725810   4.318388   4.941811   6.987698   7.869679
                   31         32         33         34         35
    31  O    0.000000
    32  O    7.130658   0.000000
    33  H    7.683297   0.966528   0.000000
    34  H    7.464167   0.965898   1.538014   0.000000
    35  O    7.048757   6.926126   6.733496   6.943184   0.000000
    36  H    7.596220   6.625402   6.391270   6.542740   0.966955
    37  H    6.848141   7.385864   7.299779   7.337723   0.967461
                   36         37
    36  H    0.000000
    37  H    1.524747   0.000000
 Symmetry turned off by external request.
 Stoichiometry    C6H10Fe3N2O16(15)
 Framework group  C1[X(C6H10Fe3N2O16)]
 Deg. of freedom   105
 Full point group                 C1      NOp   1
 Rotational constants (GHZ):           0.2138704           0.1575391           0.1216812
 Leave Link  202 at Mon Feb 20 11:27:06 2023, MaxMem= 14763950080 cpu:               0.1 elap:               0.6
 (Enter /software/commercial/gaussian/g16/AVX2/g16/l301.exe)
 General basis read from cards:  (5D, 7F)
 Centers:       4      8     13     17     26     28     33     34     36     37
 S 3 1.00
     Exponent=  3.4061341000D+01 Coefficients=  6.0251978000D-03
     Exponent=  5.1235746000D+00 Coefficients=  4.5021094000D-02
     Exponent=  1.1646626000D+00 Coefficients=  2.0189726000D-01
 S 1 1.00
     Exponent=  3.2723041000D-01 Coefficients=  1.0000000000D+00
 S 1 1.00
     Exponent=  1.0307241000D-01 Coefficients=  1.0000000000D+00
 P 1 1.00
     Exponent=  8.0000000000D-01 Coefficients=  1.0000000000D+00
 ****
 Centers:       1      2      5      6      9     10     11     14     15     19
 Centers:      21     22     24     31     32     35
 S 6 1.00
     Exponent=  2.7032382631D+04 Coefficients=  2.1726302465D-04
     Exponent=  4.0523871392D+03 Coefficients=  1.6838662199D-03
     Exponent=  9.2232722710D+02 Coefficients=  8.7395616265D-03
     Exponent=  2.6124070989D+02 Coefficients=  3.5239968808D-02
     Exponent=  8.5354641351D+01 Coefficients=  1.1153519115D-01
     Exponent=  3.1035035245D+01 Coefficients=  2.5588953961D-01
 S 2 1.00
     Exponent=  1.2260860728D+01 Coefficients=  3.9768730901D-01
     Exponent=  4.9987076005D+00 Coefficients=  2.4627849430D-01
 S 1 1.00
     Exponent=  1.1703108158D+00 Coefficients=  1.0000000000D+00
 S 1 1.00
     Exponent=  4.6474740994D-01 Coefficients=  1.0000000000D+00
 S 1 1.00
     Exponent=  1.8504536357D-01 Coefficients=  1.0000000000D+00
 P 4 1.00
     Exponent=  6.3274954801D+01 Coefficients=  6.0685103418D-03
     Exponent=  1.4627049379D+01 Coefficients=  4.1912575824D-02
     Exponent=  4.4501223456D+00 Coefficients=  1.6153841088D-01
     Exponent=  1.5275799647D+00 Coefficients=  3.5706951311D-01
 P 1 1.00
     Exponent=  5.2935117943D-01 Coefficients=  4.4794207502D-01
 P 1 1.00
     Exponent=  1.7478421270D-01 Coefficients=  2.4446069663D-01
 D 1 1.00
     Exponent=  2.3140000000D+00 Coefficients=  1.0000000000D+00
 D 1 1.00
     Exponent=  6.4500000000D-01 Coefficients=  1.0000000000D+00
 F 1 1.00
     Exponent=  1.4280000000D+00 Coefficients=  1.0000000000D+00
 ****
 Centers:       3      7     12     16     25     27
 S 6 1.00
     Exponent=  1.3575349682D+04 Coefficients=  2.2245814352D-04
     Exponent=  2.0352333680D+03 Coefficients=  1.7232738252D-03
     Exponent=  4.6322562359D+02 Coefficients=  8.9255715314D-03
     Exponent=  1.3120019598D+02 Coefficients=  3.5727984502D-02
     Exponent=  4.2853015891D+01 Coefficients=  1.1076259931D-01
     Exponent=  1.5584185766D+01 Coefficients=  2.4295627626D-01
 S 2 1.00
     Exponent=  6.2067138508D+00 Coefficients=  4.1440263448D-01
     Exponent=  2.5764896527D+00 Coefficients=  2.3744968655D-01
 S 1 1.00
     Exponent=  5.7696339419D-01 Coefficients=  1.0000000000D+00
 S 1 1.00
     Exponent=  2.2972831358D-01 Coefficients=  1.0000000000D+00
 S 1 1.00
     Exponent=  9.5164440028D-02 Coefficients=  1.0000000000D+00
 P 4 1.00
     Exponent=  3.4697232244D+01 Coefficients=  5.3333657805D-03
     Exponent=  7.9582622826D+00 Coefficients=  3.5864109092D-02
     Exponent=  2.3780826883D+00 Coefficients=  1.4215873329D-01
     Exponent=  8.1433208183D-01 Coefficients=  3.4270471845D-01
 P 1 1.00
     Exponent=  2.8887547253D-01 Coefficients=  4.6445822433D-01
 P 1 1.00
     Exponent=  1.0056823671D-01 Coefficients=  2.4955789874D-01
 D 1 1.00
     Exponent=  1.0970000000D+00 Coefficients=  1.0000000000D+00
 D 1 1.00
     Exponent=  3.1800000000D-01 Coefficients=  1.0000000000D+00
 F 1 1.00
     Exponent=  7.6100000000D-01 Coefficients=  1.0000000000D+00
 ****
 Centers:      18     20     23
 S 8 1.00
     Exponent=  3.0078484637D+05 Coefficients=  2.2806273096D-04
     Exponent=  4.5088970557D+04 Coefficients=  1.7681788761D-03
     Exponent=  1.0262516317D+04 Coefficients=  9.1927083490D-03
     Exponent=  2.9052897293D+03 Coefficients=  3.7355495807D-02
     Exponent=  9.4611487137D+02 Coefficients=  1.2151108426D-01
     Exponent=  3.3987832894D+02 Coefficients=  2.8818881468D-01
     Exponent=  1.3194425588D+02 Coefficients=  4.1126612677D-01
     Exponent=  5.2111494077D+01 Coefficients=  2.1518583573D-01
 S 4 1.00
     Exponent=  3.2948839267D+02 Coefficients= -2.4745216477D-02
     Exponent=  1.0192332739D+02 Coefficients= -1.1683089050D-01
     Exponent=  1.6240462745D+01 Coefficients=  5.5293621136D-01
     Exponent=  6.8840675801D+00 Coefficients=  5.3601640182D-01
 S 2 1.00
     Exponent=  1.0470693782D+01 Coefficients= -2.2912708577D-01
     Exponent=  1.7360039648D+00 Coefficients=  7.1159319984D-01
 S 1 1.00
     Exponent=  7.2577288979D-01 Coefficients=  1.0000000000D+00
 S 1 1.00
     Exponent=  1.1595528203D-01 Coefficients=  1.0000000000D+00
 S 1 1.00
     Exponent=  4.1968227746D-02 Coefficients=  1.0000000000D+00
 P 6 1.00
     Exponent=  1.5853959970D+03 Coefficients=  2.3793960179D-03
     Exponent=  3.7538006499D+02 Coefficients=  1.9253154755D-02
     Exponent=  1.2031816501D+02 Coefficients=  9.0021836536D-02
     Exponent=  4.4788749031D+01 Coefficients=  2.5798172356D-01
     Exponent=  1.7829278584D+01 Coefficients=  4.1492649744D-01
     Exponent=  7.2247153786D+00 Coefficients=  2.4207474784D-01
 P 3 1.00
     Exponent=  2.8143219756D+01 Coefficients= -2.9041755152D-02
     Exponent=  3.8743241412D+00 Coefficients=  5.5312260343D-01
     Exponent=  1.5410752281D+00 Coefficients=  9.6771136842D-01
 P 1 1.00
     Exponent=  5.8285615250D-01 Coefficients=  1.0000000000D+00
 P 1 1.00
     Exponent=  1.3491500000D-01 Coefficients=  1.0000000000D+00
 D 4 1.00
     Exponent=  6.1996675034D+01 Coefficients=  1.1971972255D-02
     Exponent=  1.7873732552D+01 Coefficients=  7.3210135410D-02
     Exponent=  6.2744782934D+00 Coefficients=  2.3103094314D-01
     Exponent=  2.3552337175D+00 Coefficients=  3.9910706494D-01
 D 1 1.00
     Exponent=  8.5432239901D-01 Coefficients=  4.1391589765D-01
 D 1 1.00
     Exponent=  2.7869254413D-01 Coefficients=  2.1909269782D-01
 D 1 1.00
     Exponent=  9.1000000000D-02 Coefficients=  1.0000000000D+00
 F 1 1.00
     Exponent=  1.5980000000D+00 Coefficients=  1.0000000000D+00
 ****
 Centers:      29     30
 S 6 1.00
     Exponent=  1.9730800647D+04 Coefficients=  2.1887984991D-04
     Exponent=  2.9578958745D+03 Coefficients=  1.6960708803D-03
     Exponent=  6.7322133595D+02 Coefficients=  8.7954603538D-03
     Exponent=  1.9068249494D+02 Coefficients=  3.5359382605D-02
     Exponent=  6.2295441898D+01 Coefficients=  1.1095789217D-01
     Exponent=  2.2654161182D+01 Coefficients=  2.4982972552D-01
 S 2 1.00
     Exponent=  8.9791477428D+00 Coefficients=  4.0623896148D-01
     Exponent=  3.6863002370D+00 Coefficients=  2.4338217176D-01
 S 1 1.00
     Exponent=  8.4660076805D-01 Coefficients=  1.0000000000D+00
 S 1 1.00
     Exponent=  3.3647133771D-01 Coefficients=  1.0000000000D+00
 S 1 1.00
     Exponent=  1.3647653675D-01 Coefficients=  1.0000000000D+00
 P 4 1.00
     Exponent=  4.9200380510D+01 Coefficients=  5.5552416751D-03
     Exponent=  1.1346790537D+01 Coefficients=  3.8052379723D-02
     Exponent=  3.4273972411D+00 Coefficients=  1.4953671029D-01
     Exponent=  1.1785525134D+00 Coefficients=  3.4949305230D-01
 P 1 1.00
     Exponent=  4.1642204972D-01 Coefficients=  4.5843153697D-01
 P 1 1.00
     Exponent=  1.4260826011D-01 Coefficients=  2.4428771672D-01
 D 1 1.00
     Exponent=  1.6540000000D+00 Coefficients=  1.0000000000D+00
 D 1 1.00
     Exponent=  4.6900000000D-01 Coefficients=  1.0000000000D+00
 F 1 1.00
     Exponent=  1.0930000000D+00 Coefficients=  1.0000000000D+00
 ****
 Ernie: Thresh=  0.10000D-02 Tol=  0.10000D-05 Strict=F.
   939 basis functions,  1610 primitive gaussians,  1080 cartesian basis functions
   140 alpha electrons      126 beta electrons
       nuclear repulsion energy      5039.8134331617 Hartrees.
 IExCor= 4134 DFT=T Ex+Corr=M06L ExCW=0 ScaHFX=  0.000000
 ScaDFX=  1.000000  1.000000  1.000000  1.000000 ScalE2=  1.000000  1.000000
 IRadAn=      5 IRanWt=     -1 IRanGd=            0 ICorTp=0 IEmpDi=  4
 NAtoms=   37 NActive=   37 NUniq=   37 SFac= 1.00D+00 NAtFMM=   60 NAOKFM=F Big=F
 Integral buffers will be    131072 words long.
 Raffenetti 2 integral format.
 Two-electron integral symmetry is turned off.
 Leave Link  301 at Mon Feb 20 11:27:07 2023, MaxMem= 14763950080 cpu:               0.1 elap:               0.6
 (Enter /software/commercial/gaussian/g16/AVX2/g16/l302.exe)
 NPDir=0 NMtPBC=     1 NCelOv=     1 NCel=       1 NClECP=     1 NCelD=      1
         NCelK=      1 NCelE2=     1 NClLst=     1 CellRange=     0.0.
 One-electron integrals computed using PRISM.
 NBasis=   939 RedAO= T EigKep=  3.31D-04  NBF=   939
 NBsUse=   939 1.00D-06 EigRej= -1.00D+00 NBFU=   939
 Precomputing XC quadrature grid using
 IXCGrd= 4 IRadAn=           5 IRanWt=          -1 IRanGd=           0 AccXCQ= 0.00D+00.
 Generated NRdTot=       0 NPtTot=           0 NUsed=           0 NTot=          32
 NSgBfM=  1054  1054  1054  1054  1054 MxSgAt=    37 MxSgA2=    37.
 Leave Link  302 at Mon Feb 20 11:27:13 2023, MaxMem= 14763950080 cpu:               3.3 elap:               4.6
 (Enter /software/commercial/gaussian/g16/AVX2/g16/l303.exe)
 DipDrv:  MaxL=1.
 Leave Link  303 at Mon Feb 20 11:27:15 2023, MaxMem= 14763950080 cpu:               0.2 elap:               1.1
 (Enter /software/commercial/gaussian/g16/AVX2/g16/l401.exe)
 ExpMin= 4.20D-02 ExpMax= 3.01D+05 ExpMxC= 2.91D+03 IAcc=3 IRadAn=         5 AccDes= 0.00D+00
 Harris functional with IExCor= 1009 and IRadAn=       5 diagonalized for initial guess.
 HarFok:  IExCor= 1009 AccDes= 0.00D+00 IRadAn=         5 IDoV= 1 UseB2=F ITyADJ=14
 ICtDFT=  3500011 ScaDFX=  1.000000  1.000000  1.000000  1.000000
 FoFCou: FMM=F IPFlag=           0 FMFlag=      100000 FMFlg1=           0
         NFxFlg=           0 DoJE=T BraDBF=F KetDBF=T FulRan=T
         wScrn=  0.000000 ICntrl=       500 IOpCl=  0 I1Cent=   200000004 NGrid=           0
         NMat0=    1 NMatS0=      1 NMatT0=    0 NMatD0=    1 NMtDS0=    0 NMtDT0=    0
 Symmetry not used in FoFCou.
 Harris En= -5337.32065741420    
 JPrj=0 DoOrth=F DoCkMO=F.
 Initial guess <Sx>= 0.0000 <Sy>= 0.0000 <Sz>= 7.0000 <S**2>=56.0000 S= 7.0000
 Leave Link  401 at Mon Feb 20 11:27:36 2023, MaxMem= 14763950080 cpu:              35.6 elap:              20.4
 (Enter /software/commercial/gaussian/g16/AVX2/g16/l502.exe)
 Two-electron integral symmetry not used.
 UHF open shell SCF:
 Using DIIS extrapolation, IDIIS=  1040.
 NGot= 14763950080 LenX= 14761603088 LenY= 14760435608
 Requested convergence on RMS density matrix=1.00D-08 within 150 cycles.
 Requested convergence on MAX density matrix=1.00D-06.
 Requested convergence on             energy=1.00D-06.
 No special actions if energy rises.
 Fock matrices will be formed incrementally for  20 cycles.

 Cycle   1  Pass 1  IDiag  1:
 FoFJK:  IHMeth= 1 ICntrl=     500 DoSepK=F KAlg= 0 I1Cent=           0 FoldK=F
 IRaf= 750000000 NMat=       1 IRICut=       1 DoRegI=T DoRafI=F ISym2E= 0 IDoP0=0 IntGTp=1.
 FoFCou: FMM=F IPFlag=           0 FMFlag=      100000 FMFlg1=           0
         NFxFlg=           0 DoJE=T BraDBF=F KetDBF=F FulRan=T
         wScrn=  0.000000 ICntrl=       500 IOpCl=  0 I1Cent=           0 NGrid=           0
         NMat0=    1 NMatS0=      1 NMatT0=    0 NMatD0=    1 NMtDS0=    0 NMtDT0=    0
 Symmetry not used in FoFCou.
 E= -5338.55866159207    
 DIIS: error= 3.51D-02 at cycle   1 NSaved=   1.
 NSaved= 1 IEnMin= 1 EnMin= -5338.55866159207     IErMin= 1 ErrMin= 3.51D-02
 ErrMax= 3.51D-02  0.00D+00 EMaxC= 1.00D-01 BMatC= 8.96D+00 BMatP= 8.96D+00
 IDIUse=3 WtCom= 6.49D-01 WtEn= 3.51D-01
 Coeff-Com:  0.100D+01
 Coeff-En:   0.100D+01
 Coeff:      0.100D+01
 Gap=     0.067 Goal=   None    Shift=    0.000
 Gap=     0.005 Goal=   None    Shift=    0.000
 GapD=    0.005 DampG=0.250 DampE=0.250 DampFc=0.1250 IDamp=-1.
 Damping current iteration by 1.25D-01
 RMSDP=3.25D-03 MaxDP=4.09D-01              OVMax= 9.48D-01

 Cycle   2  Pass 1  IDiag  1:
 RMSU=  4.05D-04    CP:  9.96D-01
 E= -5338.74908291960     Delta-E=       -0.190421327527 Rises=F Damp=T
 DIIS: error= 1.75D-02 at cycle   2 NSaved=   2.
 NSaved= 2 IEnMin= 2 EnMin= -5338.74908291960     IErMin= 2 ErrMin= 1.75D-02
 ErrMax= 1.75D-02  0.00D+00 EMaxC= 1.00D-01 BMatC= 2.41D+00 BMatP= 8.96D+00
 IDIUse=3 WtCom= 8.25D-01 WtEn= 1.75D-01
 Coeff-Com: -0.371D+00 0.137D+01
 Coeff-En:   0.331D+00 0.669D+00
 Coeff:     -0.248D+00 0.125D+01
 Gap=    -0.002 Goal=   None    Shift=    0.000
 Gap=    -0.036 Goal=   None    Shift=    0.000
 RMSDP=1.92D-03 MaxDP=2.45D-01 DE=-1.90D-01 OVMax= 9.75D-01

 Cycle   3  Pass 1  IDiag  1:
 RMSU=  1.92D-03    CP:  9.84D-01  9.49D-01
 E= -5334.61425796173     Delta-E=        4.134824957868 Rises=F Damp=F
 DIIS: error= 7.15D-02 at cycle   3 NSaved=   3.
 NSaved= 3 IEnMin= 2 EnMin= -5338.74908291960     IErMin= 2 ErrMin= 1.75D-02
 ErrMax= 7.15D-02  0.00D+00 EMaxC= 1.00D-01 BMatC= 2.06D+01 BMatP= 2.41D+00
 IDIUse=2 WtCom= 0.00D+00 WtEn= 1.00D+00
 EnCoef did    10 forward-backward iterations
 Coeff-En:   0.232D+00 0.708D+00 0.599D-01
 Coeff:      0.232D+00 0.708D+00 0.599D-01
 Gap=    -0.307 Goal=   None    Shift=    0.000
 Gap=     0.072 Goal=   None    Shift=    0.000
 RMSDP=2.11D-03 MaxDP=3.39D-01 DE= 4.13D+00 OVMax= 6.68D-01

 Cycle   4  Pass 1  IDiag  1:
 RMSU=  1.26D-03    CP:  9.92D-01  2.87D+00  2.14D-01
 E= -5334.61497463284     Delta-E=       -0.000716671109 Rises=F Damp=F
 DIIS: error= 1.50D-01 at cycle   4 NSaved=   4.
 NSaved= 4 IEnMin= 2 EnMin= -5338.74908291960     IErMin= 2 ErrMin= 1.75D-02
 ErrMax= 1.50D-01  0.00D+00 EMaxC= 1.00D-01 BMatC= 3.35D+01 BMatP= 2.41D+00
 IDIUse=2 WtCom= 0.00D+00 WtEn= 1.00D+00
 EnCoef did   100 forward-backward iterations
 Coeff-En:   0.564D+00 0.441D-01 0.129D+00 0.263D+00
 Coeff:      0.564D+00 0.441D-01 0.129D+00 0.263D+00
 Gap=    -0.046 Goal=   None    Shift=    0.000
 Gap=     0.011 Goal=   None    Shift=    0.000
 RMSDP=2.22D-03 MaxDP=3.40D-01 DE=-7.17D-04 OVMax= 8.77D-01

 Cycle   5  Pass 1  IDiag  1:
 RMSU=  1.62D-03    CP:  9.79D-01  3.00D+00  2.53D-01 -1.93D-01
 E= -5326.55995684147     Delta-E=        8.055017791376 Rises=F Damp=F
 DIIS: error= 1.80D-01 at cycle   5 NSaved=   5.
 NSaved= 5 IEnMin= 2 EnMin= -5338.74908291960     IErMin= 2 ErrMin= 1.75D-02
 ErrMax= 1.80D-01  0.00D+00 EMaxC= 1.00D-01 BMatC= 7.19D+01 BMatP= 2.41D+00
 IDIUse=2 WtCom= 0.00D+00 WtEn= 1.00D+00
 EnCoef did   100 forward-backward iterations
 Coeff-En:   0.600D+00 0.141D-01 0.744D-01 0.246D+00 0.656D-01
 Coeff:      0.600D+00 0.141D-01 0.744D-01 0.246D+00 0.656D-01
 Gap=     0.027 Goal=   None    Shift=    0.000
 Gap=    -0.018 Goal=   None    Shift=    0.000
 RMSDP=1.71D-03 MaxDP=3.03D-01 DE= 8.06D+00 OVMax= 9.55D-01

 Cycle   6  Pass 1  IDiag  1:
 RMSU=  1.03D-03    CP:  9.92D-01  1.88D+00  2.93D-01  2.21D-01  3.58D-01
 E= -5338.40265171352     Delta-E=      -11.842694872055 Rises=F Damp=F
 DIIS: error= 3.31D-02 at cycle   6 NSaved=   6.
 NSaved= 6 IEnMin= 2 EnMin= -5338.74908291960     IErMin= 2 ErrMin= 1.75D-02
 ErrMax= 3.31D-02  0.00D+00 EMaxC= 1.00D-01 BMatC= 4.66D+00 BMatP= 2.41D+00
 IDIUse=2 WtCom= 0.00D+00 WtEn= 1.00D+00
 EnCoef did   100 forward-backward iterations
 Coeff-En:   0.433D+00 0.856D-02 0.361D-03 0.190D+00 0.000D+00 0.368D+00
 Coeff:      0.433D+00 0.856D-02 0.361D-03 0.190D+00 0.000D+00 0.368D+00
 Gap=    -0.003 Goal=   None    Shift=    0.000
 Gap=    -0.234 Goal=   None    Shift=    0.000
 RMSDP=1.64D-03 MaxDP=3.14D-01 DE=-1.18D+01 OVMax= 7.39D-01

 Cycle   7  Pass 1  IDiag  1:
 RMSU=  1.24D-03    CP:  9.95D-01  1.94D+00  1.87D-01  2.54D-01  2.81D-01
                    CP: -2.00D-02
 E= -5333.85586470312     Delta-E=        4.546787010404 Rises=F Damp=F
 DIIS: error= 1.23D-01 at cycle   7 NSaved=   7.
 NSaved= 7 IEnMin= 2 EnMin= -5338.74908291960     IErMin= 2 ErrMin= 1.75D-02
 ErrMax= 1.23D-01  0.00D+00 EMaxC= 1.00D-01 BMatC= 2.74D+01 BMatP= 2.41D+00
 IDIUse=2 WtCom= 0.00D+00 WtEn= 1.00D+00
 EnCoef did   100 forward-backward iterations
 Coeff-En:   0.375D+00 0.348D-02 0.147D-03 0.168D+00 0.000D+00 0.373D+00
 Coeff-En:   0.807D-01
 Coeff:      0.375D+00 0.348D-02 0.147D-03 0.168D+00 0.000D+00 0.373D+00
 Coeff:      0.807D-01
 Gap=     0.184 Goal=   None    Shift=    0.000
 Gap=     0.098 Goal=   None    Shift=    0.000
 RMSDP=1.26D-03 MaxDP=3.40D-01 DE= 4.55D+00 OVMax= 9.84D-01

 Cycle   8  Pass 1  IDiag  1:
 RMSU=  6.63D-04    CP:  9.98D-01  1.27D+00  1.97D-01  4.77D-01  3.81D-02
                    CP:  1.74D-01  2.83D-01
 E= -5338.86033530574     Delta-E=       -5.004470602624 Rises=F Damp=F
 DIIS: error= 3.80D-02 at cycle   8 NSaved=   8.
 NSaved= 8 IEnMin= 8 EnMin= -5338.86033530574     IErMin= 2 ErrMin= 1.75D-02
 ErrMax= 3.80D-02  0.00D+00 EMaxC= 1.00D-01 BMatC= 4.93D+00 BMatP= 2.41D+00
 IDIUse=2 WtCom= 0.00D+00 WtEn= 1.00D+00
 EnCoef did     1 forward-backward iterations
 Coeff-En:   0.000D+00 0.000D+00 0.000D+00 0.000D+00 0.000D+00 0.420D+00
 Coeff-En:   0.620D-01 0.518D+00
 Coeff:      0.000D+00 0.000D+00 0.000D+00 0.000D+00 0.000D+00 0.420D+00
 Coeff:      0.620D-01 0.518D+00
 Gap=     0.179 Goal=   None    Shift=    0.000
 Gap=    -0.003 Goal=   None    Shift=    0.000
 RMSDP=9.57D-04 MaxDP=2.91D-01 DE=-5.00D+00 OVMax= 9.81D-01

 Cycle   9  Pass 1  IDiag  1:
 RMSU=  6.78D-04    CP:  9.98D-01  1.10D+00  1.82D-01  2.68D-01  1.93D-01
                    CP:  1.50D-01  3.83D-01  1.70D-01
 E= -5338.68833478264     Delta-E=        0.172000523107 Rises=F Damp=F
 DIIS: error= 4.35D-02 at cycle   9 NSaved=   9.
 NSaved= 9 IEnMin= 8 EnMin= -5338.86033530574     IErMin= 2 ErrMin= 1.75D-02
 ErrMax= 4.35D-02  0.00D+00 EMaxC= 1.00D-01 BMatC= 5.88D+00 BMatP= 2.41D+00
 IDIUse=2 WtCom= 0.00D+00 WtEn= 1.00D+00
 EnCoef did     6 forward-backward iterations
 Coeff-En:   0.000D+00 0.000D+00 0.000D+00 0.000D+00 0.000D+00 0.299D+00
 Coeff-En:   0.000D+00 0.463D+00 0.238D+00
 Coeff:      0.000D+00 0.000D+00 0.000D+00 0.000D+00 0.000D+00 0.299D+00
 Coeff:      0.000D+00 0.463D+00 0.238D+00
 Gap=     0.070 Goal=   None    Shift=    0.000
 Gap=     0.004 Goal=   None    Shift=    0.000
 RMSDP=8.13D-04 MaxDP=2.53D-01 DE= 1.72D-01 OVMax= 9.84D-01

 Cycle  10  Pass 1  IDiag  1:
 RMSU=  6.13D-04    CP:  9.98D-01  1.23D+00  2.17D-01  2.99D-01  1.36D-01
                    CP:  2.30D-01  2.35D-01  4.33D-01  3.46D-01
 E= -5339.09462121948     Delta-E=       -0.406286436850 Rises=F Damp=F
 DIIS: error= 2.86D-02 at cycle  10 NSaved=  10.
 NSaved=10 IEnMin=10 EnMin= -5339.09462121948     IErMin= 2 ErrMin= 1.75D-02
 ErrMax= 2.86D-02  0.00D+00 EMaxC= 1.00D-01 BMatC= 3.24D+00 BMatP= 2.41D+00
 IDIUse=2 WtCom= 0.00D+00 WtEn= 1.00D+00
 EnCoef did     6 forward-backward iterations
 Coeff-En:   0.000D+00 0.000D+00 0.000D+00 0.000D+00 0.000D+00 0.236D+00
 Coeff-En:   0.000D+00 0.403D+00 0.220D+00 0.141D+00
 Coeff:      0.000D+00 0.000D+00 0.000D+00 0.000D+00 0.000D+00 0.236D+00
 Coeff:      0.000D+00 0.403D+00 0.220D+00 0.141D+00
 Gap=     0.036 Goal=   None    Shift=    0.000
 Gap=     0.009 Goal=   None    Shift=    0.000
 RMSDP=8.44D-04 MaxDP=2.42D-01 DE=-4.06D-01 OVMax= 9.98D-01

 Cycle  11  Pass 1  IDiag  1:
 RMSU=  5.74D-04    CP:  9.97D-01  1.40D+00  2.09D-01  3.69D-01  1.66D-01
                    CP:  5.19D-01  1.70D-01  3.43D-01  3.55D-01  1.53D-01
 E= -5339.58086642836     Delta-E=       -0.486245208880 Rises=F Damp=F
 DIIS: error= 9.72D-03 at cycle  11 NSaved=  11.
 NSaved=11 IEnMin=11 EnMin= -5339.58086642836     IErMin=11 ErrMin= 9.72D-03
 ErrMax= 9.72D-03  0.00D+00 EMaxC= 1.00D-01 BMatC= 5.60D-01 BMatP= 2.41D+00
 IDIUse=3 WtCom= 9.03D-01 WtEn= 9.72D-02
 EnCoef did     4 forward-backward iterations
 Coeff-Com: -0.161D+00 0.202D+00 0.186D-01-0.326D-02-0.162D-01-0.135D-01
 Coeff-Com:  0.191D-01 0.923D-01 0.952D-01 0.211D+00 0.557D+00
 Coeff-En:   0.000D+00 0.000D+00 0.000D+00 0.000D+00 0.000D+00 0.000D+00
 Coeff-En:   0.000D+00 0.112D+00 0.968D-01 0.213D+00 0.578D+00
 Coeff:     -0.146D+00 0.182D+00 0.168D-01-0.294D-02-0.146D-01-0.122D-01
 Coeff:      0.172D-01 0.942D-01 0.953D-01 0.211D+00 0.559D+00
 Gap=     0.095 Goal=   None    Shift=    0.000
 Gap=    -0.004 Goal=   None    Shift=    0.000
 RMSDP=7.19D-04 MaxDP=9.67D-02 DE=-4.86D-01 OVMax= 9.00D-01

 Cycle  12  Pass 1  IDiag  1:
 RMSU=  3.71D-04    CP:  9.99D-01  1.24D+00  1.85D-01  3.82D-01  1.15D-01
                    CP:  1.93D-01  2.60D-01  4.51D-01  4.30D-01  1.61D-01
                    CP:  1.58D-01
 E= -5339.64253848107     Delta-E=       -0.061672052705 Rises=F Damp=F
 DIIS: error= 6.43D-03 at cycle  12 NSaved=  12.
 NSaved=12 IEnMin=12 EnMin= -5339.64253848107     IErMin=12 ErrMin= 6.43D-03
 ErrMax= 6.43D-03  0.00D+00 EMaxC= 1.00D-01 BMatC= 2.45D-01 BMatP= 5.60D-01
 IDIUse=3 WtCom= 9.36D-01 WtEn= 6.43D-02
 EnCoef did     5 forward-backward iterations
 Coeff-Com: -0.529D-01 0.694D-01 0.293D-02-0.270D-03-0.488D-02-0.615D-02
 Coeff-Com:  0.619D-02 0.828D-03-0.153D-01 0.145D+00 0.393D+00 0.462D+00
 Coeff-En:   0.000D+00 0.000D+00 0.000D+00 0.000D+00 0.000D+00 0.000D+00
 Coeff-En:   0.000D+00 0.000D+00 0.000D+00 0.120D+00 0.388D+00 0.492D+00
 Coeff:     -0.495D-01 0.649D-01 0.274D-02-0.253D-03-0.456D-02-0.575D-02
 Coeff:      0.579D-02 0.775D-03-0.143D-01 0.143D+00 0.393D+00 0.464D+00
 Gap=     0.064 Goal=   None    Shift=    0.000
 Gap=     0.001 Goal=   None    Shift=    0.000
 RMSDP=6.52D-04 MaxDP=9.21D-02 DE=-6.17D-02 OVMax= 8.49D-01

 Cycle  13  Pass 1  IDiag  1:
 RMSU=  1.55D-04    CP:  9.97D-01  1.44D+00  2.07D-01  3.82D-01  1.71D-01
                    CP:  4.90D-01  2.02D-01  3.94D-01  3.26D-01  2.22D-01
                    CP:  8.93D-01  1.46D-01
 E= -5339.66444797713     Delta-E=       -0.021909496065 Rises=F Damp=F
 DIIS: error= 5.75D-03 at cycle  13 NSaved=  13.
 NSaved=13 IEnMin=13 EnMin= -5339.66444797713     IErMin=13 ErrMin= 5.75D-03
 ErrMax= 5.75D-03  0.00D+00 EMaxC= 1.00D-01 BMatC= 1.46D-01 BMatP= 2.45D-01
 IDIUse=3 WtCom= 9.43D-01 WtEn= 5.75D-02
 EnCoef did     2 forward-backward iterations
 Coeff-Com: -0.201D-01 0.286D-01 0.590D-02 0.255D-02-0.163D-02-0.135D-01
 Coeff-Com:  0.200D-02-0.158D-01-0.959D-02 0.607D-01-0.242D-01 0.414D+00
 Coeff-Com:  0.571D+00
 Coeff-En:   0.000D+00 0.000D+00 0.000D+00 0.000D+00 0.000D+00 0.000D+00
 Coeff-En:   0.000D+00 0.000D+00 0.000D+00 0.453D-01 0.000D+00 0.419D+00
 Coeff-En:   0.536D+00
 Coeff:     -0.190D-01 0.269D-01 0.556D-02 0.240D-02-0.154D-02-0.127D-01
 Coeff:      0.189D-02-0.149D-01-0.904D-02 0.598D-01-0.228D-01 0.415D+00
 Coeff:      0.569D+00
 Gap=     0.084 Goal=   None    Shift=    0.000
 Gap=     0.004 Goal=   None    Shift=    0.000
 RMSDP=3.46D-04 MaxDP=5.37D-02 DE=-2.19D-02 OVMax= 4.46D-01

 Cycle  14  Pass 1  IDiag  1:
 RMSU=  1.63D-04    CP:  9.98D-01  1.36D+00  1.99D-01  4.03D-01  1.40D-01
                    CP:  3.46D-01  2.17D-01  4.49D-01  3.35D-01  2.50D-01
                    CP:  5.97D-01  6.52D-01  1.17D+00
 E= -5339.70125118950     Delta-E=       -0.036803212361 Rises=F Damp=F
 DIIS: error= 2.97D-03 at cycle  14 NSaved=  14.
 NSaved=14 IEnMin=14 EnMin= -5339.70125118950     IErMin=14 ErrMin= 2.97D-03
 ErrMax= 2.97D-03  0.00D+00 EMaxC= 1.00D-01 BMatC= 3.97D-02 BMatP= 1.46D-01
 IDIUse=3 WtCom= 9.70D-01 WtEn= 2.97D-02
 EnCoef did     6 forward-backward iterations
 Coeff-Com: -0.712D-02 0.835D-02 0.445D-02-0.163D-02-0.712D-03-0.174D-03
 Coeff-Com:  0.143D-02-0.193D-01 0.914D-02 0.160D-01-0.102D+00 0.240D+00
 Coeff-Com:  0.441D+00 0.412D+00
 Coeff-En:   0.000D+00 0.000D+00 0.000D+00 0.000D+00 0.000D+00 0.000D+00
 Coeff-En:   0.000D+00 0.000D+00 0.000D+00 0.154D-01 0.000D+00 0.215D+00
 Coeff-En:   0.283D+00 0.487D+00
 Coeff:     -0.691D-02 0.810D-02 0.432D-02-0.158D-02-0.691D-03-0.169D-03
 Coeff:      0.139D-02-0.188D-01 0.886D-02 0.159D-01-0.992D-01 0.239D+00
 Coeff:      0.436D+00 0.414D+00
 Gap=     0.086 Goal=   None    Shift=    0.000
 Gap=     0.005 Goal=   None    Shift=    0.000
 RMSDP=1.05D-04 MaxDP=1.63D-02 DE=-3.68D-02 OVMax= 1.33D-01

 Cycle  15  Pass 1  IDiag  1:
 RMSU=  7.75D-05    CP:  9.98D-01  1.34D+00  1.97D-01  3.83D-01  1.44D-01
                    CP:  3.34D-01  2.29D-01  4.16D-01  3.57D-01  2.70D-01
                    CP:  5.38D-01  7.57D-01  1.13D+00  8.78D-01
 E= -5339.70667786029     Delta-E=       -0.005426670790 Rises=F Damp=F
 DIIS: error= 1.12D-03 at cycle  15 NSaved=  15.
 NSaved=15 IEnMin=15 EnMin= -5339.70667786029     IErMin=15 ErrMin= 1.12D-03
 ErrMax= 1.12D-03  0.00D+00 EMaxC= 1.00D-01 BMatC= 8.62D-03 BMatP= 3.97D-02
 IDIUse=3 WtCom= 9.89D-01 WtEn= 1.12D-02
 EnCoef did     2 forward-backward iterations
 Coeff-Com: -0.113D-03-0.152D-03 0.135D-02-0.735D-03-0.245D-03 0.186D-02
 Coeff-Com: -0.895D-03-0.107D-01 0.990D-02-0.463D-02-0.216D-01 0.858D-01
 Coeff-Com:  0.177D+00 0.274D+00 0.489D+00
 Coeff-En:   0.000D+00 0.000D+00 0.000D+00 0.000D+00 0.000D+00 0.000D+00
 Coeff-En:   0.000D+00 0.000D+00 0.000D+00 0.000D+00 0.000D+00 0.000D+00
 Coeff-En:   0.859D-01 0.162D+00 0.753D+00
 Coeff:     -0.112D-03-0.150D-03 0.133D-02-0.726D-03-0.242D-03 0.184D-02
 Coeff:     -0.885D-03-0.106D-01 0.979D-02-0.458D-02-0.213D-01 0.848D-01
 Coeff:      0.176D+00 0.272D+00 0.492D+00
 Gap=     0.082 Goal=   None    Shift=    0.000
 Gap=     0.007 Goal=   None    Shift=    0.000
 RMSDP=1.54D-04 MaxDP=2.49D-02 DE=-5.43D-03 OVMax= 2.05D-01

 Cycle  16  Pass 1  IDiag  1:
 RMSU=  5.02D-05    CP:  9.98D-01  1.39D+00  2.01D-01  3.95D-01  1.55D-01
                    CP:  3.88D-01  2.21D-01  4.12D-01  3.52D-01  2.24D-01
                    CP:  6.97D-01  5.69D-01  1.24D+00  7.57D-01  3.74D-01
 E= -5339.70623352074     Delta-E=        0.000444339541 Rises=F Damp=F
 DIIS: error= 1.34D-03 at cycle  16 NSaved=  16.
 NSaved=16 IEnMin=15 EnMin= -5339.70667786029     IErMin=15 ErrMin= 1.12D-03
 ErrMax= 1.34D-03  0.00D+00 EMaxC= 1.00D-01 BMatC= 9.59D-03 BMatP= 8.62D-03
 IDIUse=3 WtCom= 9.89D-01 WtEn= 1.12D-02
 Coeff-Com:  0.290D-02-0.407D-02 0.222D-03-0.603D-03-0.493D-03 0.230D-02
 Coeff-Com:  0.117D-03-0.371D-02 0.871D-02-0.358D-02-0.135D-01 0.142D-01
 Coeff-Com:  0.431D-01 0.102D+00 0.487D+00 0.365D+00
 Coeff-En:   0.000D+00 0.000D+00 0.000D+00 0.000D+00 0.000D+00 0.000D+00
 Coeff-En:   0.000D+00 0.000D+00 0.000D+00 0.000D+00 0.000D+00 0.000D+00
 Coeff-En:   0.000D+00 0.000D+00 0.527D+00 0.473D+00
 Coeff:      0.287D-02-0.403D-02 0.219D-03-0.597D-03-0.488D-03 0.227D-02
 Coeff:      0.115D-03-0.367D-02 0.861D-02-0.354D-02-0.134D-01 0.140D-01
 Coeff:      0.426D-01 0.101D+00 0.488D+00 0.366D+00
 Gap=     0.086 Goal=   None    Shift=    0.000
 Gap=     0.006 Goal=   None    Shift=    0.000
 RMSDP=7.71D-05 MaxDP=9.21D-03 DE= 4.44D-04 OVMax= 9.84D-02

 Cycle  17  Pass 1  IDiag  1:
 RMSU=  2.25D-05    CP:  9.98D-01  1.37D+00  1.99D-01  3.91D-01  1.50D-01
                    CP:  3.59D-01  2.26D-01  4.09D-01  3.63D-01  2.35D-01
                    CP:  6.20D-01  6.70D-01  1.21D+00  8.47D-01  6.65D-01
                    CP:  8.04D-01
 E= -5339.70865059911     Delta-E=       -0.002417078365 Rises=F Damp=F
 DIIS: error= 4.27D-04 at cycle  17 NSaved=  17.
 NSaved=17 IEnMin=17 EnMin= -5339.70865059911     IErMin=17 ErrMin= 4.27D-04
 ErrMax= 4.27D-04  0.00D+00 EMaxC= 1.00D-01 BMatC= 1.22D-03 BMatP= 8.62D-03
 IDIUse=3 WtCom= 9.96D-01 WtEn= 4.27D-03
 EnCoef did     6 forward-backward iterations
 Coeff-Com:  0.520D-02-0.619D-02 0.188D-03-0.283D-03-0.232D-03 0.117D-02
 Coeff-Com:  0.159D-03-0.228D-03 0.148D-02 0.210D-02-0.949D-02-0.517D-02
 Coeff-Com: -0.704D-02-0.193D-01 0.279D+00 0.295D+00 0.464D+00
 Coeff-En:   0.000D+00 0.000D+00 0.000D+00 0.000D+00 0.000D+00 0.000D+00
 Coeff-En:   0.000D+00 0.000D+00 0.000D+00 0.000D+00 0.000D+00 0.000D+00
 Coeff-En:   0.000D+00 0.000D+00 0.209D+00 0.132D+00 0.659D+00
 Coeff:      0.518D-02-0.616D-02 0.188D-03-0.281D-03-0.231D-03 0.117D-02
 Coeff:      0.159D-03-0.227D-03 0.148D-02 0.209D-02-0.944D-02-0.515D-02
 Coeff:     -0.701D-02-0.193D-01 0.278D+00 0.294D+00 0.465D+00
 Gap=     0.086 Goal=   None    Shift=    0.000
 Gap=     0.007 Goal=   None    Shift=    0.000
 RMSDP=3.08D-05 MaxDP=4.64D-03 DE=-2.42D-03 OVMax= 3.97D-02

 Cycle  18  Pass 1  IDiag  1:
 RMSU=  1.42D-05    CP:  9.98D-01  1.37D+00  2.00D-01  3.92D-01  1.52D-01
                    CP:  3.69D-01  2.25D-01  4.10D-01  3.57D-01  2.39D-01
                    CP:  6.44D-01  6.25D-01  1.26D+00  8.48D-01  6.23D-01
                    CP:  8.16D-01  7.04D-01
 E= -5339.70871157739     Delta-E=       -0.000060978278 Rises=F Damp=F
 DIIS: error= 4.21D-04 at cycle  18 NSaved=  18.
 NSaved=18 IEnMin=18 EnMin= -5339.70871157739     IErMin=18 ErrMin= 4.21D-04
 ErrMax= 4.21D-04  0.00D+00 EMaxC= 1.00D-01 BMatC= 6.28D-04 BMatP= 1.22D-03
 IDIUse=3 WtCom= 9.96D-01 WtEn= 4.21D-03
 EnCoef did     2 forward-backward iterations
 Coeff-Com:  0.438D-02-0.520D-02 0.151D-03-0.252D-03-0.979D-04 0.584D-03
 Coeff-Com:  0.217D-03 0.527D-03 0.150D-04 0.237D-02-0.879D-02-0.101D-02
 Coeff-Com: -0.135D-01-0.431D-01 0.123D+00 0.949D-01 0.347D+00 0.499D+00
 Coeff-En:   0.000D+00 0.000D+00 0.000D+00 0.000D+00 0.000D+00 0.000D+00
 Coeff-En:   0.000D+00 0.000D+00 0.000D+00 0.000D+00 0.000D+00 0.000D+00
 Coeff-En:   0.000D+00 0.000D+00 0.124D+00 0.000D+00 0.294D+00 0.582D+00
 Coeff:      0.436D-02-0.518D-02 0.151D-03-0.251D-03-0.975D-04 0.582D-03
 Coeff:      0.216D-03 0.525D-03 0.149D-04 0.236D-02-0.875D-02-0.100D-02
 Coeff:     -0.135D-01-0.429D-01 0.123D+00 0.945D-01 0.346D+00 0.500D+00
 Gap=     0.087 Goal=   None    Shift=    0.000
 Gap=     0.007 Goal=   None    Shift=    0.000
 RMSDP=2.70D-05 MaxDP=4.16D-03 DE=-6.10D-05 OVMax= 3.56D-02

 Cycle  19  Pass 1  IDiag  1:
 RMSU=  7.36D-06    CP:  9.98D-01  1.37D+00  2.00D-01  3.91D-01  1.50D-01
                    CP:  3.58D-01  2.27D-01  4.10D-01  3.60D-01  2.44D-01
                    CP:  6.17D-01  6.58D-01  1.25D+00  8.82D-01  7.16D-01
                    CP:  8.01D-01  9.54D-01  1.21D+00
 E= -5339.70887938623     Delta-E=       -0.000167808841 Rises=F Damp=F
 DIIS: error= 1.95D-04 at cycle  19 NSaved=  19.
 NSaved=19 IEnMin=19 EnMin= -5339.70887938623     IErMin=19 ErrMin= 1.95D-04
 ErrMax= 1.95D-04  0.00D+00 EMaxC= 1.00D-01 BMatC= 1.65D-04 BMatP= 6.28D-04
 IDIUse=3 WtCom= 9.98D-01 WtEn= 1.95D-03
 Coeff-Com:  0.276D-02-0.308D-02 0.818D-04-0.101D-03-0.349D-04 0.354D-03
 Coeff-Com: -0.277D-04 0.416D-03-0.993D-03 0.763D-03 0.204D-02 0.392D-02
 Coeff-Com: -0.843D-02-0.390D-01 0.260D-01-0.304D-01 0.155D+00 0.396D+00
 Coeff-Com:  0.495D+00
 Coeff-En:   0.000D+00 0.000D+00 0.000D+00 0.000D+00 0.000D+00 0.000D+00
 Coeff-En:   0.000D+00 0.000D+00 0.000D+00 0.000D+00 0.000D+00 0.000D+00
 Coeff-En:   0.000D+00 0.000D+00 0.000D+00 0.000D+00 0.000D+00 0.172D+00
 Coeff-En:   0.828D+00
 Coeff:      0.275D-02-0.307D-02 0.817D-04-0.101D-03-0.349D-04 0.353D-03
 Coeff:     -0.276D-04 0.415D-03-0.991D-03 0.762D-03 0.204D-02 0.391D-02
 Coeff:     -0.842D-02-0.389D-01 0.260D-01-0.303D-01 0.155D+00 0.395D+00
 Coeff:      0.496D+00
 Gap=     0.087 Goal=   None    Shift=    0.000
 Gap=     0.007 Goal=   None    Shift=    0.000
 RMSDP=1.64D-05 MaxDP=2.03D-03 DE=-1.68D-04 OVMax= 2.21D-02

 Cycle  20  Pass 1  IDiag  1:
 RMSU=  3.81D-06    CP:  9.98D-01  1.37D+00  2.00D-01  3.92D-01  1.52D-01
                    CP:  3.64D-01  2.26D-01  4.08D-01  3.60D-01  2.42D-01
                    CP:  6.33D-01  6.35D-01  1.26D+00  8.67D-01  6.87D-01
                    CP:  8.72D-01  1.04D+00  1.39D+00  6.62D-01
 E= -5339.70888793633     Delta-E=       -0.000008550105 Rises=F Damp=F
 DIIS: error= 1.28D-04 at cycle  20 NSaved=  20.
 NSaved=20 IEnMin=20 EnMin= -5339.70888793633     IErMin=20 ErrMin= 1.28D-04
 ErrMax= 1.28D-04  0.00D+00 EMaxC= 1.00D-01 BMatC= 8.93D-05 BMatP= 1.65D-04
 IDIUse=3 WtCom= 9.99D-01 WtEn= 1.28D-03
 Coeff-Com:  0.125D-02-0.153D-02 0.127D-03-0.388D-04-0.292D-04-0.749D-04
 Coeff-Com:  0.764D-04 0.166D-03-0.310D-03-0.173D-03 0.450D-02 0.346D-02
 Coeff-Com: -0.607D-02-0.200D-01-0.272D-01-0.751D-01-0.464D-02 0.169D+00
 Coeff-Com:  0.471D+00 0.485D+00
 Coeff-En:   0.000D+00 0.000D+00 0.000D+00 0.000D+00 0.000D+00 0.000D+00
 Coeff-En:   0.000D+00 0.000D+00 0.000D+00 0.000D+00 0.000D+00 0.000D+00
 Coeff-En:   0.000D+00 0.000D+00 0.000D+00 0.000D+00 0.000D+00 0.000D+00
 Coeff-En:   0.446D+00 0.554D+00
 Coeff:      0.125D-02-0.153D-02 0.126D-03-0.388D-04-0.291D-04-0.748D-04
 Coeff:      0.763D-04 0.166D-03-0.310D-03-0.173D-03 0.449D-02 0.346D-02
 Coeff:     -0.606D-02-0.199D-01-0.271D-01-0.750D-01-0.463D-02 0.169D+00
 Coeff:      0.471D+00 0.486D+00
 Gap=     0.087 Goal=   None    Shift=    0.000
 Gap=     0.007 Goal=   None    Shift=    0.000
 RMSDP=8.03D-06 MaxDP=9.59D-04 DE=-8.55D-06 OVMax= 1.05D-02

 Cycle  21  Pass 1  IDiag  1:
 Restarting incremental Fock formation.
 E= -5339.70891657879     Delta-E=       -0.000028642455 Rises=F Damp=F
 DIIS: error= 4.23D-05 at cycle  21 NSaved=  20.
 NSaved=20 IEnMin=20 EnMin= -5339.70891657879     IErMin=20 ErrMin= 4.23D-05
 ErrMax= 4.23D-05  0.00D+00 EMaxC= 1.00D-01 BMatC= 5.25D-06 BMatP= 8.93D-05
 IDIUse=1 WtCom= 1.00D+00 WtEn= 0.00D+00
 Coeff-Com:  0.504D-03-0.650D-03 0.337D-04 0.311D-04-0.914D-04-0.468D-04
 Coeff-Com: -0.200D-04 0.363D-04-0.221D-03 0.197D-02 0.210D-02-0.854D-03
 Coeff-Com:  0.219D-02-0.255D-01-0.385D-01-0.548D-01-0.436D-01 0.147D+00
 Coeff-Com:  0.264D+00 0.747D+00
 Coeff:      0.504D-03-0.650D-03 0.337D-04 0.311D-04-0.914D-04-0.468D-04
 Coeff:     -0.200D-04 0.363D-04-0.221D-03 0.197D-02 0.210D-02-0.854D-03
 Coeff:      0.219D-02-0.255D-01-0.385D-01-0.548D-01-0.436D-01 0.147D+00
 Coeff:      0.264D+00 0.747D+00
 Gap=     0.087 Goal=   None    Shift=    0.000
 Gap=     0.007 Goal=   None    Shift=    0.000
 RMSDP=4.22D-06 MaxDP=5.79D-04 DE=-2.86D-05 OVMax= 5.71D-03

 Cycle  22  Pass 1  IDiag  1:
 RMSU=  4.22D-06    CP:  1.00D+00
 E= -5339.70891861278     Delta-E=       -0.000002033987 Rises=F Damp=F
 DIIS: error= 1.99D-05 at cycle  22 NSaved=  20.
 NSaved=20 IEnMin=20 EnMin= -5339.70891861278     IErMin=20 ErrMin= 1.99D-05
 ErrMax= 1.99D-05  0.00D+00 EMaxC= 1.00D-01 BMatC= 2.04D-06 BMatP= 5.25D-06
 IDIUse=1 WtCom= 1.00D+00 WtEn= 0.00D+00
 Coeff-Com:  0.821D-04-0.716D-04-0.184D-04 0.167D-04-0.433D-04-0.209D-04
 Coeff-Com:  0.261D-04-0.106D-03-0.492D-03 0.460D-03 0.137D-02 0.105D-01
 Coeff-Com: -0.957D-02-0.107D-02-0.413D-01-0.919D-01-0.704D-01 0.161D-01
 Coeff-Com:  0.529D+00 0.658D+00
 Coeff:      0.821D-04-0.716D-04-0.184D-04 0.167D-04-0.433D-04-0.209D-04
 Coeff:      0.261D-04-0.106D-03-0.492D-03 0.460D-03 0.137D-02 0.105D-01
 Coeff:     -0.957D-02-0.107D-02-0.413D-01-0.919D-01-0.704D-01 0.161D-01
 Coeff:      0.529D+00 0.658D+00
 Gap=     0.087 Goal=   None    Shift=    0.000
 Gap=     0.007 Goal=   None    Shift=    0.000
 RMSDP=2.96D-06 MaxDP=4.05D-04 DE=-2.03D-06 OVMax= 4.07D-03

 Cycle  23  Pass 1  IDiag  1:
 RMSU=  1.00D-06    CP:  1.00D+00  1.66D+00
 E= -5339.70891940082     Delta-E=       -0.000000788048 Rises=F Damp=F
 DIIS: error= 9.39D-06 at cycle  23 NSaved=  20.
 NSaved=20 IEnMin=20 EnMin= -5339.70891940082     IErMin=20 ErrMin= 9.39D-06
 ErrMax= 9.39D-06  0.00D+00 EMaxC= 1.00D-01 BMatC= 5.36D-07 BMatP= 2.04D-06
 IDIUse=1 WtCom= 1.00D+00 WtEn= 0.00D+00
 Coeff-Com: -0.772D-04 0.132D-03-0.121D-04-0.245D-04 0.187D-04-0.369D-04
 Coeff-Com: -0.737D-04-0.597D-03 0.147D-03 0.712D-03 0.615D-02 0.102D-02
 Coeff-Com:  0.641D-02-0.117D-01-0.416D-01-0.617D-01-0.438D-01 0.129D+00
 Coeff-Com:  0.366D+00 0.650D+00
 Coeff:     -0.772D-04 0.132D-03-0.121D-04-0.245D-04 0.187D-04-0.369D-04
 Coeff:     -0.737D-04-0.597D-03 0.147D-03 0.712D-03 0.615D-02 0.102D-02
 Coeff:      0.641D-02-0.117D-01-0.416D-01-0.617D-01-0.438D-01 0.129D+00
 Coeff:      0.366D+00 0.650D+00
 Gap=     0.087 Goal=   None    Shift=    0.000
 Gap=     0.007 Goal=   None    Shift=    0.000
 RMSDP=1.84D-06 MaxDP=1.93D-04 DE=-7.88D-07 OVMax= 2.58D-03

 Cycle  24  Pass 1  IDiag  1:
 RMSU=  1.26D-06    CP:  1.00D+00  1.94D+00  1.64D+00
 E= -5339.70891901048     Delta-E=        0.000000390341 Rises=F Damp=F
 DIIS: error= 2.33D-05 at cycle  24 NSaved=  20.
 NSaved=20 IEnMin=19 EnMin= -5339.70891940082     IErMin=19 ErrMin= 9.39D-06
 ErrMax= 2.33D-05  0.00D+00 EMaxC= 1.00D-01 BMatC= 2.23D-06 BMatP= 5.36D-07
 IDIUse=1 WtCom= 1.00D+00 WtEn= 0.00D+00
 Coeff-Com: -0.111D-03 0.145D-03 0.259D-04-0.295D-04-0.213D-04 0.578D-05
 Coeff-Com: -0.224D-03 0.210D-03-0.304D-03 0.166D-02 0.231D-02 0.814D-03
 Coeff-Com: -0.193D-02-0.820D-02-0.639D-02-0.456D-01-0.605D-01 0.415D-01
 Coeff-Com:  0.521D+00 0.556D+00
 Coeff:     -0.111D-03 0.145D-03 0.259D-04-0.295D-04-0.213D-04 0.578D-05
 Coeff:     -0.224D-03 0.210D-03-0.304D-03 0.166D-02 0.231D-02 0.814D-03
 Coeff:     -0.193D-02-0.820D-02-0.639D-02-0.456D-01-0.605D-01 0.415D-01
 Coeff:      0.521D+00 0.556D+00
 Gap=     0.087 Goal=   None    Shift=    0.000
 Gap=     0.007 Goal=   None    Shift=    0.000
 RMSDP=9.33D-07 MaxDP=1.26D-04 DE= 3.90D-07 OVMax= 1.24D-03

 Cycle  25  Pass 1  IDiag  1:
 RMSU=  3.05D-07    CP:  1.00D+00  2.12D+00  1.72D+00  6.99D-01
 E= -5339.70891949183     Delta-E=       -0.000000481345 Rises=F Damp=F
 DIIS: error= 1.20D-05 at cycle  25 NSaved=  20.
 NSaved=20 IEnMin=20 EnMin= -5339.70891949183     IErMin=18 ErrMin= 9.39D-06
 ErrMax= 1.20D-05  0.00D+00 EMaxC= 1.00D-01 BMatC= 6.71D-07 BMatP= 5.36D-07
 IDIUse=1 WtCom= 1.00D+00 WtEn= 0.00D+00
 Coeff-Com: -0.923D-04 0.108D-03-0.431D-04-0.181D-04 0.317D-04 0.716D-04
 Coeff-Com:  0.216D-03-0.419D-03-0.415D-03 0.126D-02-0.273D-02-0.189D-03
 Coeff-Com:  0.632D-03 0.204D-01-0.271D-01-0.650D-01-0.614D-01 0.217D+00
 Coeff-Com:  0.273D+00 0.644D+00
 Coeff:     -0.923D-04 0.108D-03-0.431D-04-0.181D-04 0.317D-04 0.716D-04
 Coeff:      0.216D-03-0.419D-03-0.415D-03 0.126D-02-0.273D-02-0.189D-03
 Coeff:      0.632D-03 0.204D-01-0.271D-01-0.650D-01-0.614D-01 0.217D+00
 Coeff:      0.273D+00 0.644D+00
 Gap=     0.087 Goal=   None    Shift=    0.000
 Gap=     0.007 Goal=   None    Shift=    0.000
 RMSDP=5.59D-07 MaxDP=1.12D-04 DE=-4.81D-07 OVMax= 7.75D-04

 Cycle  26  Pass 1  IDiag  1:
 RMSU=  2.08D-07    CP:  1.00D+00  2.23D+00  1.87D+00  8.58D-01  1.17D+00
 E= -5339.70891947004     Delta-E=        0.000000021791 Rises=F Damp=F
 DIIS: error= 1.28D-05 at cycle  26 NSaved=  20.
 NSaved=20 IEnMin=19 EnMin= -5339.70891949183     IErMin=17 ErrMin= 9.39D-06
 ErrMax= 1.28D-05  0.00D+00 EMaxC= 1.00D-01 BMatC= 7.04D-07 BMatP= 5.36D-07
 IDIUse=1 WtCom= 1.00D+00 WtEn= 0.00D+00
 Coeff-Com:  0.585D-05-0.272D-06 0.514D-05-0.213D-04-0.397D-04 0.151D-03
 Coeff-Com: -0.290D-03-0.115D-02 0.229D-02-0.248D-02 0.390D-02 0.496D-02
 Coeff-Com:  0.294D-01-0.170D-01-0.288D-01-0.786D-01-0.172D-01-0.136D+00
 Coeff-Com:  0.520D+00 0.720D+00
 Coeff:      0.585D-05-0.272D-06 0.514D-05-0.213D-04-0.397D-04 0.151D-03
 Coeff:     -0.290D-03-0.115D-02 0.229D-02-0.248D-02 0.390D-02 0.496D-02
 Coeff:      0.294D-01-0.170D-01-0.288D-01-0.786D-01-0.172D-01-0.136D+00
 Coeff:      0.520D+00 0.720D+00
 Gap=     0.087 Goal=   None    Shift=    0.000
 Gap=     0.007 Goal=   None    Shift=    0.000
 RMSDP=4.44D-07 MaxDP=5.75D-05 DE= 2.18D-08 OVMax= 5.72D-04

 Cycle  27  Pass 1  IDiag  1:
 RMSU=  1.48D-07    CP:  1.00D+00  2.28D+00  1.88D+00  6.49D-01  2.00D+00
                    CP:  8.96D-01
 E= -5339.70891963794     Delta-E=       -0.000000167904 Rises=F Damp=F
 DIIS: error= 5.72D-06 at cycle  27 NSaved=  20.
 NSaved=20 IEnMin=20 EnMin= -5339.70891963794     IErMin=20 ErrMin= 5.72D-06
 ErrMax= 5.72D-06  0.00D+00 EMaxC= 1.00D-01 BMatC= 1.57D-07 BMatP= 5.36D-07
 IDIUse=1 WtCom= 1.00D+00 WtEn= 0.00D+00
 Coeff-Com:  0.342D-05 0.124D-05-0.138D-04 0.505D-04 0.926D-04-0.252D-03
 Coeff-Com: -0.324D-03 0.658D-03-0.112D-02 0.147D-02-0.205D-02 0.110D-01
 Coeff-Com: -0.153D-01 0.142D-01-0.223D-01-0.456D-01-0.153D+00 0.192D+00
 Coeff-Com:  0.303D+00 0.718D+00
 Coeff:      0.342D-05 0.124D-05-0.138D-04 0.505D-04 0.926D-04-0.252D-03
 Coeff:     -0.324D-03 0.658D-03-0.112D-02 0.147D-02-0.205D-02 0.110D-01
 Coeff:     -0.153D-01 0.142D-01-0.223D-01-0.456D-01-0.153D+00 0.192D+00
 Coeff:      0.303D+00 0.718D+00
 Gap=     0.087 Goal=   None    Shift=    0.000
 Gap=     0.007 Goal=   None    Shift=    0.000
 RMSDP=2.51D-07 MaxDP=4.33D-05 DE=-1.68D-07 OVMax= 3.36D-04

 Cycle  28  Pass 1  IDiag  1:
 RMSU=  9.17D-08    CP:  1.00D+00  2.32D+00  1.90D+00  5.60D-01  2.28D+00
                    CP:  1.06D+00  9.40D-01
 E= -5339.70891967349     Delta-E=       -0.000000035550 Rises=F Damp=F
 DIIS: error= 3.12D-06 at cycle  28 NSaved=  20.
 NSaved=20 IEnMin=20 EnMin= -5339.70891967349     IErMin=20 ErrMin= 3.12D-06
 ErrMax= 3.12D-06  0.00D+00 EMaxC= 1.00D-01 BMatC= 4.33D-08 BMatP= 1.57D-07
 IDIUse=1 WtCom= 1.00D+00 WtEn= 0.00D+00
 Coeff-Com:  0.139D-05-0.708D-05 0.212D-04 0.555D-04-0.140D-03 0.170D-03
 Coeff-Com:  0.636D-04-0.739D-04 0.540D-03-0.339D-02 0.366D-03-0.105D-01
 Coeff-Com:  0.184D-01 0.362D-02-0.240D-01-0.797D-01 0.810D-02-0.408D-01
 Coeff-Com:  0.656D+00 0.472D+00
[...]
 Vibration    57          0.960              1.027              0.446
                       Q            Log10(Q)             Ln(Q)
 Total Bot       0.555881D-63        -63.255018       -145.650062
 Total V=0       0.607211D+32         31.783340         73.183845
 Vib (Bot)       0.563941D-80        -80.248767       -184.779614
 Vib (Bot)    1  0.837584D+01          0.923028          2.125351
 Vib (Bot)    2  0.702588D+01          0.846701          1.949601
 Vib (Bot)    3  0.565413D+01          0.752366          1.732386
 Vib (Bot)    4  0.495779D+01          0.695288          1.600960
 Vib (Bot)    5  0.272120D+01          0.434761          1.001074
 Vib (Bot)    6  0.252770D+01          0.402725          0.927309
 Vib (Bot)    7  0.240715D+01          0.381504          0.878445
 Vib (Bot)    8  0.235024D+01          0.371113          0.854519
 Vib (Bot)    9  0.217366D+01          0.337192          0.776413
 Vib (Bot)   10  0.204388D+01          0.310456          0.714850
 Vib (Bot)   11  0.183547D+01          0.263747          0.607301
 Vib (Bot)   12  0.180629D+01          0.256786          0.591273
 Vib (Bot)   13  0.171252D+01          0.233636          0.537967
 Vib (Bot)   14  0.163442D+01          0.213364          0.491288
 Vib (Bot)   15  0.160920D+01          0.206609          0.475734
 Vib (Bot)   16  0.152982D+01          0.184641          0.425153
 Vib (Bot)   17  0.150572D+01          0.177743          0.409268
 Vib (Bot)   18  0.137685D+01          0.138885          0.319795
 Vib (Bot)   19  0.134841D+01          0.129822          0.298925
 Vib (Bot)   20  0.124484D+01          0.095114          0.219009
 Vib (Bot)   21  0.123435D+01          0.091439          0.210546
 Vib (Bot)   22  0.115714D+01          0.063385          0.145950
 Vib (Bot)   23  0.115007D+01          0.060723          0.139820
 Vib (Bot)   24  0.113882D+01          0.056454          0.129991
 Vib (Bot)   25  0.110788D+01          0.044493          0.102449
 Vib (Bot)   26  0.108061D+01          0.033667          0.077522
 Vib (Bot)   27  0.106794D+01          0.028546          0.065731
 Vib (Bot)   28  0.105230D+01          0.022141          0.050981
 Vib (Bot)   29  0.994618D+00         -0.002344         -0.005397
 Vib (Bot)   30  0.975312D+00         -0.010856         -0.024998
 Vib (Bot)   31  0.918121D+00         -0.037100         -0.085426
 Vib (Bot)   32  0.913566D+00         -0.039260         -0.090400
 Vib (Bot)   33  0.873598D+00         -0.058688         -0.135135
 Vib (Bot)   34  0.853289D+00         -0.068904         -0.158658
 Vib (Bot)   35  0.782868D+00         -0.106312         -0.244791
 Vib (Bot)   36  0.735954D+00         -0.133149         -0.306588
 Vib (Bot)   37  0.718815D+00         -0.143383         -0.330152
 Vib (Bot)   38  0.714400D+00         -0.146059         -0.336312
 Vib (Bot)   39  0.696202D+00         -0.157265         -0.362115
 Vib (Bot)   40  0.687001D+00         -0.163043         -0.375420
 Vib (Bot)   41  0.675761D+00         -0.170207         -0.391915
 Vib (Bot)   42  0.636835D+00         -0.195973         -0.451244
 Vib (Bot)   43  0.632461D+00         -0.198967         -0.458137
 Vib (Bot)   44  0.602669D+00         -0.219921         -0.506387
 Vib (Bot)   45  0.582456D+00         -0.234737         -0.540502
 Vib (Bot)   46  0.567001D+00         -0.246416         -0.567395
 Vib (Bot)   47  0.526054D+00         -0.278970         -0.642351
 Vib (Bot)   48  0.519153D+00         -0.284705         -0.655556
 Vib (Bot)   49  0.492907D+00         -0.307235         -0.707435
 Vib (Bot)   50  0.490703D+00         -0.309181         -0.711916
 Vib (Bot)   51  0.453921D+00         -0.343020         -0.789832
 Vib (Bot)   52  0.446829D+00         -0.349858         -0.805579
 Vib (Bot)   53  0.424956D+00         -0.371656         -0.855770
 Vib (Bot)   54  0.320478D+00         -0.494202         -1.137942
 Vib (Bot)   55  0.275505D+00         -0.559871         -1.289151
 Vib (Bot)   56  0.253776D+00         -0.595550         -1.371305
 Vib (Bot)   57  0.247405D+00         -0.606591         -1.396727
 Vib (V=0)       0.616015D+15         14.789592         34.054293
 Vib (V=0)    1  0.889075D+01          0.948938          2.185011
 Vib (V=0)    2  0.754365D+01          0.877582          2.020706
 Vib (V=0)    3  0.617620D+01          0.790721          1.820702
 Vib (V=0)    4  0.548294D+01          0.739013          1.701641
 Vib (V=0)    5  0.326676D+01          0.514117          1.183798
 Vib (V=0)    6  0.307668D+01          0.488082          1.123850
 Vib (V=0)    7  0.295853D+01          0.471077          1.084694
 Vib (V=0)    8  0.290284D+01          0.462823          1.065690
 Vib (V=0)    9  0.273043D+01          0.436230          1.004458
 Vib (V=0)   10  0.260415D+01          0.415666          0.957106
 Vib (V=0)   11  0.240235D+01          0.380637          0.876449
 Vib (V=0)   12  0.237421D+01          0.375519          0.864665
 Vib (V=0)   13  0.228402D+01          0.358700          0.825938
 Vib (V=0)   14  0.220919D+01          0.344233          0.792626
 Vib (V=0)   15  0.218508D+01          0.339468          0.781655
 Vib (V=0)   16  0.210946D+01          0.324171          0.746432
 Vib (V=0)   17  0.208656D+01          0.319431          0.735518
 Vib (V=0)   18  0.196482D+01          0.293323          0.675402
 Vib (V=0)   19  0.193813D+01          0.287382          0.661722
 Vib (V=0)   20  0.184150D+01          0.265173          0.610582
 Vib (V=0)   21  0.183177D+01          0.262872          0.605285
 Vib (V=0)   22  0.176054D+01          0.245647          0.565622
 Vib (V=0)   23  0.175405D+01          0.244043          0.561930
 Vib (V=0)   24  0.174375D+01          0.241483          0.556036
 Vib (V=0)   25  0.171548D+01          0.234387          0.539695
 Vib (V=0)   26  0.169068D+01          0.228060          0.525128
 Vib (V=0)   27  0.167919D+01          0.225100          0.518313
 Vib (V=0)   28  0.166505D+01          0.221427          0.509855
 Vib (V=0)   29  0.161322D+01          0.207694          0.478234
 Vib (V=0)   30  0.159601D+01          0.203035          0.467506
 Vib (V=0)   31  0.154544D+01          0.189052          0.435309
 Vib (V=0)   32  0.154144D+01          0.187927          0.432719
 Vib (V=0)   33  0.150657D+01          0.177988          0.409832
 Vib (V=0)   34  0.148899D+01          0.172892          0.398098
 Vib (V=0)   35  0.142891D+01          0.155006          0.356915
 Vib (V=0)   36  0.138973D+01          0.142932          0.329113
 Vib (V=0)   37  0.137561D+01          0.138496          0.318898
 Vib (V=0)   38  0.137199D+01          0.137351          0.316263
 Vib (V=0)   39  0.135714D+01          0.132626          0.305383
 Vib (V=0)   40  0.134969D+01          0.130233          0.299874
 Vib (V=0)   41  0.134063D+01          0.127308          0.293137
 Vib (V=0)   42  0.130967D+01          0.117161          0.269772
 Vib (V=0)   43  0.130623D+01          0.116020          0.267145
 Vib (V=0)   44  0.128308D+01          0.108253          0.249261
 Vib (V=0)   45  0.126763D+01          0.102992          0.237149
 Vib (V=0)   46  0.125597D+01          0.098979          0.227908
 Vib (V=0)   47  0.122576D+01          0.088407          0.203564
 Vib (V=0)   48  0.122078D+01          0.086636          0.199488
 Vib (V=0)   49  0.120211D+01          0.079944          0.184078
 Vib (V=0)   50  0.120056D+01          0.079385          0.182791
 Vib (V=0)   51  0.117531D+01          0.070153          0.161532
 Vib (V=0)   52  0.117056D+01          0.068395          0.157486
 Vib (V=0)   53  0.115619D+01          0.063030          0.145132
 Vib (V=0)   54  0.109389D+01          0.038974          0.089741
 Vib (V=0)   55  0.107088D+01          0.029740          0.068480
 Vib (V=0)   56  0.106072D+01          0.025599          0.058944
 Vib (V=0)   57  0.105786D+01          0.024429          0.056249
 Electronic      0.150000D+02          1.176091          2.708050
 Translational   0.484765D+09          8.685531         19.999175
 Rotational      0.135558D+08          7.132126         16.422327
 
                                                      FeFeFe-TS1-2xH2O-reactant
                                                             IR Spectrum
 
     33  33                   222222       211111111111111111111111                                                                  
     88  77                   999999       076666665444444333333000777777666655543333333333222222222222221111111111111111111         
     41  31                   777765       009642119100000998888555655544642096019976553210988776643211009888777665433221110988874322
     15  38                   532036       377152856265421659650752694321035233959419410231940709391676400861754420753759320585162795
 
     XX  XX                   XXXXXX       XXXXXXXXXXXXXXXXXXXXX XXXXXXXXXXXXXXXXXXXXXXXXXXXXXXXXXXXXXXXXXXXXXXXXXXXXXXXXXXXXXXXXXXXX
                                           XXX       XXX    X             X  XXX XXX                                                 
                                           XXX         X                  X   XX                                                     
                                            XX                            X   X                                                      
                                            XX                                X                                                      
                                            XX                                X                                                      
                                            XX                                X                                                      
                                            XX                                                                                       
                                            XX                                                                                       
                                            XX                                                                                       
                                            XX                                                                                       
                                            XX                                                                                       
                                            XX                                                                                       
                                            XX                                                                                       
                                            XX                                                                                       
                                            X                                                                                        
                                            X                                                                                        
                                            X                                                                                        
                                            X                                                                                        
                                            X                                                                                        
 
 -------------------------------------------------------------------
 Center     Atomic                   Forces (Hartrees/Bohr)
 Number     Number              X              Y              Z
 -------------------------------------------------------------------
      1        8           0.001304916   -0.000060002    0.001425204
      2        8          -0.001281135    0.000633017    0.001887023
      3        6           0.000033738    0.000113758   -0.002513207
      4        1           0.000067128   -0.000144323    0.000060142
      5        8          -0.000619785    0.002113422    0.000391766
      6        8          -0.000640501    0.000608359   -0.000566816
      7        6           0.000145096   -0.001305510   -0.000127024
      8        1           0.000181136   -0.000491141   -0.000487557
      9        8           0.000885982    0.001943472    0.001624157
     10        8          -0.000030643   -0.000397435   -0.000422435
     11        8           0.000820722    0.000003103   -0.000416430
     12        6          -0.000390843   -0.000639467    0.000213423
     13        1          -0.000138655   -0.000233902   -0.000126465
     14        8           0.000569398   -0.000807761    0.002402451
     15        8           0.000023384    0.000834927    0.002096324
     16        6           0.000285861    0.000272765   -0.002484567
     17        1          -0.000124614    0.000047283    0.000021228
     18       26          -0.002418229   -0.003681337   -0.011898503
     19        8           0.001484102    0.001112234    0.001483433
     20       26           0.000134316    0.000359707   -0.001166121
     21        8           0.000193018    0.001277441    0.001739054
     22        8           0.001874897   -0.000393840    0.001632076
     23       26          -0.000439153    0.000311540   -0.000349971
     24        8           0.000570828    0.001069468    0.001677966
     25        6          -0.001189084   -0.001198820   -0.001519053
     26        1           0.000178074    0.000265428    0.000226893
     27        6          -0.001721585   -0.001249144   -0.001194603
     28        1           0.000338423    0.000177318    0.000205484
     29        7          -0.001342169   -0.000530627    0.027252493
     30        7          -0.002608414   -0.002465903   -0.015695530
     31        8           0.003642917    0.002888695   -0.005355682
     32        8           0.000162675    0.000282622   -0.000199665
     33        1           0.000011072   -0.000107194    0.000223906
     34        1           0.000101823   -0.000123684    0.000026895
     35        8          -0.000218725   -0.000194943   -0.000085659
     36        1           0.000109942   -0.000001522    0.000015102
     37        1           0.000044086   -0.000288001    0.000004271
 -------------------------------------------------------------------
 Cartesian Forces:  Max     0.027252493 RMS     0.003424035
 Leave Link  716 at Wed Feb 22 05:16:41 2023, MaxMem= 14763950080 cpu:               0.0 elap:               0.1
 (Enter /software/commercial/gaussian/g16/AVX2/g16/l9999.exe)

 ----------------------------------------------------------------------

 Electric dipole moment (input orientation):
 (Debye = 10**-18 statcoulomb cm , SI units = C m)
                  (au)            (Debye)         (10**-30 SI)
   Tot        0.281808D+01      0.716286D+01      0.238927D+02
   x         -0.141536D+01     -0.359749D+01     -0.119999D+02
   y         -0.481266D+00     -0.122326D+01     -0.408035D+01
   z         -0.238888D+01     -0.607192D+01     -0.202537D+02

 Dipole polarizability, Alpha (input orientation).
 (esu units = cm**3 , SI units = C**2 m**2 J**-1)
 Alpha(0;0):
               (au)            (10**-24 esu)      (10**-40 SI)
   iso        0.261213D+03      0.387078D+02      0.430682D+02
   aniso      0.116155D+03      0.172123D+02      0.191513D+02
   xx         0.220358D+03      0.326537D+02      0.363321D+02
   yx         0.192904D+02      0.285855D+01      0.318056D+01
   yy         0.229080D+03      0.339461D+02      0.377702D+02
   zx         0.781460D+01      0.115800D+01      0.128845D+01
   zy         0.704518D+01      0.104399D+01      0.116159D+01
   zz         0.334201D+03      0.495235D+02      0.551023D+02

 ----------------------------------------------------------------------

 Dipole orientation:
     8         -0.01731950          0.01708712          0.03189539
     8         -2.13772579          0.66199329         -3.60373464
     6         -0.19503406          0.40413441         -2.31277957
     1          1.62231654          0.51168819         -3.33125933
     8         -7.47412605          2.43137133          5.94703635
     8         -5.23156921         -1.15498919          5.54666515
     6         -6.88947746          0.21056028          6.52885247
     1         -7.96215515         -0.63929298          8.10709053
     8         -5.31980563          5.09196580         -3.52349328
     8         -1.18570155          2.38628962          4.75787145
     8         -3.63142185          5.85544939          4.45917747
     6         -1.69770331          4.67176033          5.12095401
     1         -0.26268566          5.77295656          6.16076450
     8         -6.54845502         -2.51452651         -2.12340560
     8         -4.00477019         -3.65419210          1.09327164
     6         -5.59359708         -4.05739291         -0.63860398
     1         -6.19625163         -6.04481222         -0.84036057
    26         -5.96591559          1.21486202         -3.12353436
     8         -9.71796854          2.00349312         -2.17502659
    26         -6.73945994          4.48250872          2.61232727
     8        -10.41485092          3.74148188          1.64386158
     8         -6.52542437          7.15166605          0.00346691
    26         -2.88496013         -0.30928460          2.45573331
     8         -5.17834723          1.84956341          0.83940213
     6        -11.08300906          2.77520657         -0.43585424
     1        -13.14657265          2.61717590         -0.71118747
     6         -5.74639990          7.01051640         -2.25116857
     1         -5.42007755          8.85261140         -3.17555437
     7         -9.03726244          2.04337364         -7.64088293
     7         -9.78406224          2.05007232         -9.63993149
     8         -6.68537508          0.69095286         -6.46269051
     8         -0.34347356         -2.64329241          4.82535760
     1          0.39703794         -1.39599586          5.93527882
     1         -1.50890849         -3.59109708          5.86228126
     8         -8.89112266          7.21613731          4.98051884
     1         -8.84118672          6.36836718          6.59817547
     1        -10.56206223          6.84805403          4.33277092

 Electric dipole moment (dipole orientation):
 (Debye = 10**-18 statcoulomb cm , SI units = C m)
                  (au)            (Debye)         (10**-30 SI)
   Tot        0.281808D+01      0.716286D+01      0.238927D+02
   x          0.000000D+00      0.000000D+00      0.000000D+00
   y          0.000000D+00      0.000000D+00      0.000000D+00
   z          0.281808D+01      0.716286D+01      0.238927D+02

 Dipole polarizability, Alpha (dipole orientation).
 (esu units = cm**3 , SI units = C**2 m**2 J**-1)
 Alpha(0;0):
               (au)            (10**-24 esu)      (10**-40 SI)
   iso        0.261213D+03      0.387078D+02      0.430682D+02
   aniso      0.116155D+03      0.172123D+02      0.191513D+02
   xx         0.241097D+03      0.357270D+02      0.397516D+02
   yx        -0.214047D+02     -0.317186D+01     -0.352917D+01
   yy         0.228120D+03      0.338039D+02      0.376119D+02
   zx         0.432755D+02      0.641277D+01      0.713517D+01
   zy        -0.937571D+00     -0.138934D+00     -0.154585D+00
   zz         0.314422D+03      0.465925D+02      0.518412D+02

 ----------------------------------------------------------------------


 WHEN ALL ELSE FAILS, LOOK AT THE SCHRODINGER EQUATION.
     -- RUSSELL T. PACK, APRIL 1978
 Error termination request processed by link 9999.
 Error termination via Lnk1e in /software/commercial/gaussian/g16/AVX2/g16/l9999.exe at Wed Feb 22 05:16:42 2023.
 Job cpu time:       3 days 10 hours 35 minutes 25.4 seconds.
 Elapsed time:       1 days 17 hours 48 minutes 46.5 seconds.
 File lengths (MBytes):  RWF=   5983 Int=      0 D2E=      0 Chk=     97 Scr=      1
