 Entering Gaussian System, Link 0=g16
 Input=FeFeFe-TS1-2xH2O-QST2-H2O_relax-TS-freq.gjf
 Output=FeFeFe-TS1-2xH2O-QST2-H2O_relax-TS-freq.log
 AtFile(1): /zfs/curium/svicchi/00-MOF/01-Gaussian/zw-basis-set/def2-TZVP/H.gbs
            !----------------------------------------------------------------------
            ! Basis Set Exchange
            ! Version v0.9
            ! https://www.basissetexchange.org
            !----------------------------------------------------------------------
            !   Basis set: def2-TZVP
            ! Description: def2-TZVP
            !        Role: orbital
            !     Version: 1  (Data from Turbomole 7.3)
            !----------------------------------------------------------------------
            H     0
            S    3   1.00
                 34.0613410              0.60251978D-02
                  5.1235746              0.45021094D-01
                  1.1646626              0.20189726
            S    1   1.00
                  0.32723041             1.0000000
            S    1   1.00
                  0.10307241             1.0000000
            P    1   1.00
                  0.8000000              1.0000000
 AtFile(1): /zfs/curium/svicchi/00-MOF/01-Gaussian/zw-basis-set/def2-TZVP/O.gbs
            !----------------------------------------------------------------------
            ! Basis Set Exchange
            ! Version v0.9
            ! https://www.basissetexchange.org
            !----------------------------------------------------------------------
            !   Basis set: def2-TZVP
            ! Description: def2-TZVP
            !        Role: orbital
            !     Version: 1  (Data from Turbomole 7.3)
            !----------------------------------------------------------------------
            O     0
            S    6   1.00
              27032.3826310              0.21726302465D-03
               4052.3871392              0.16838662199D-02
                922.32722710             0.87395616265D-02
                261.24070989             0.35239968808D-01
                 85.354641351            0.11153519115
                 31.035035245            0.25588953961
            S    2   1.00
                 12.260860728            0.39768730901
                  4.9987076005           0.24627849430
            S    1   1.00
                  1.1703108158           1.0000000
            S    1   1.00
                  0.46474740994          1.0000000
            S    1   1.00
                  0.18504536357          1.0000000
            P    4   1.00
                 63.274954801            0.60685103418D-02
                 14.627049379            0.41912575824D-01
                  4.4501223456           0.16153841088
                  1.5275799647           0.35706951311
            P    1   1.00
                  0.52935117943           .44794207502
            P    1   1.00
                  0.17478421270           .24446069663
            D    1   1.00
                  2.31400000             1.0000000
            D    1   1.00
                  0.64500000             1.0000000
            F    1   1.00
                  1.42800000             1.0000000
 AtFile(1): /zfs/curium/svicchi/00-MOF/01-Gaussian/zw-basis-set/def2-TZVP/C.gbs
            !----------------------------------------------------------------------
            ! Basis Set Exchange
            ! Version v0.9
            ! https://www.basissetexchange.org
            !----------------------------------------------------------------------
            !   Basis set: def2-TZVP
            ! Description: def2-TZVP
            !        Role: orbital
            !     Version: 1  (Data from Turbomole 7.3)
            !----------------------------------------------------------------------
            C     0
            S    6   1.00
              13575.3496820              0.22245814352D-03
               2035.2333680              0.17232738252D-02
                463.22562359             0.89255715314D-02
                131.20019598             0.35727984502D-01
                 42.853015891            0.11076259931
                 15.584185766            0.24295627626
            S    2   1.00
                  6.2067138508           0.41440263448
                  2.5764896527           0.23744968655
            S    1   1.00
                  0.57696339419          1.0000000
            S    1   1.00
                  0.22972831358          1.0000000
            S    1   1.00
                  0.95164440028D-01      1.0000000
            P    4   1.00
                 34.697232244            0.53333657805D-02
                  7.9582622826           0.35864109092D-01
                  2.3780826883           0.14215873329
                  0.81433208183          0.34270471845
            P    1   1.00
                  0.28887547253           .46445822433
            P    1   1.00
                  0.10056823671           .24955789874
            D    1   1.00
                  1.09700000             1.0000000
            D    1   1.00
                  0.31800000             1.0000000
            F    1   1.00
                  0.76100000             1.0000000
 AtFile(1): /zfs/curium/svicchi/00-MOF/01-Gaussian/zw-basis-set/def2-TZVP/Fe.gbs
            !----------------------------------------------------------------------
            ! Basis Set Exchange
            ! Version v0.9
            ! https://www.basissetexchange.org
            !----------------------------------------------------------------------
            !   Basis set: def2-TZVP
            ! Description: def2-TZVP
            !        Role: orbital
            !     Version: 1  (Data from Turbomole 7.3)
            !----------------------------------------------------------------------
            Fe     0
            S    8   1.00
             300784.8463700              0.22806273096D-03
              45088.9705570              0.17681788761D-02
              10262.5163170              0.91927083490D-02
               2905.2897293              0.37355495807D-01
                946.11487137             0.12151108426
                339.87832894             0.28818881468
                131.94425588             0.41126612677
                 52.111494077            0.21518583573
            S    4   1.00
                329.48839267            -0.24745216477D-01
                101.92332739            -0.11683089050
                 16.240462745            0.55293621136
                  6.8840675801           0.53601640182
            S    2   1.00
                 10.470693782           -0.22912708577
                  1.7360039648           0.71159319984
            S    1   1.00
                  0.72577288979          1.0000000
            S    1   1.00
                  0.11595528203          1.0000000
            S    1   1.00
                  0.41968227746D-01      1.0000000
            P    6   1.00
               1585.3959970              0.23793960179D-02
                375.38006499             0.19253154755D-01
                120.31816501             0.90021836536D-01
                 44.788749031            0.25798172356
                 17.829278584            0.41492649744
                  7.2247153786           0.24207474784
            P    3   1.00
                 28.143219756           -0.29041755152D-01
                  3.8743241412           0.55312260343
                  1.5410752281           0.96771136842
            P    1   1.00
                  0.58285615250          1.0000000
            P    1   1.00
                  0.1349150              1.0000000
            D    4   1.00
                 61.996675034            0.11971972255D-01
                 17.873732552            0.73210135410D-01
                  6.2744782934           0.23103094314
                  2.3552337175           0.39910706494
            D    1   1.00
                  0.85432239901           .41391589765
            D    1   1.00
                  0.27869254413           .21909269782
            D    1   1.00
                  0.0910000              1.0000000
            F    1   1.00
                  1.5980000              1.0000000
 AtFile(1): /zfs/curium/svicchi/00-MOF/01-Gaussian/zw-basis-set/def2-TZVP/N.gbs
            !----------------------------------------------------------------------
            ! Basis Set Exchange
            ! Version v0.9
            ! https://www.basissetexchange.org
            !----------------------------------------------------------------------
            !   Basis set: def2-TZVP
            ! Description: def2-TZVP
            !        Role: orbital
            !     Version: 1  (Data from Turbomole 7.3)
            !----------------------------------------------------------------------
            N     0
            S    6   1.00
              19730.8006470              0.21887984991D-03
               2957.8958745              0.16960708803D-02
                673.22133595             0.87954603538D-02
                190.68249494             0.35359382605D-01
                 62.295441898            0.11095789217
                 22.654161182            0.24982972552
            S    2   1.00
                  8.9791477428           0.40623896148
                  3.6863002370           0.24338217176
            S    1   1.00
                  0.84660076805          1.0000000
            S    1   1.00
                  0.33647133771          1.0000000
            S    1   1.00
                  0.13647653675          1.0000000
            P    4   1.00
                 49.200380510            0.55552416751D-02
                 11.346790537            0.38052379723D-01
                  3.4273972411           0.14953671029
                  1.1785525134           0.34949305230
            P    1   1.00
                  0.41642204972           .45843153697
            P    1   1.00
                  0.14260826011           .24428771672
            D    1   1.00
                  1.65400000             1.0000000
            D    1   1.00
                  0.46900000             1.0000000
            F    1   1.00
                  1.09300000             1.0000000
 Initial command:
 /software/commercial/gaussian/g16/AVX2/g16/l1.exe "/scratch1/svicchi/G09-176060.pbs02/Gau-1071698.inp" -scrdir="/scratch1/svicchi/G09-176060.pbs02/"
 Entering Link 1 = /software/commercial/gaussian/g16/AVX2/g16/l1.exe PID=   1071699.
  
 Copyright (c) 1988-2021, Gaussian, Inc.  All Rights Reserved.
  
 This is part of the Gaussian(R) 16 program.  It is based on
 the Gaussian(R) 09 system (copyright 2009, Gaussian, Inc.),
 the Gaussian(R) 03 system (copyright 2003, Gaussian, Inc.),
 the Gaussian(R) 98 system (copyright 1998, Gaussian, Inc.),
 the Gaussian(R) 94 system (copyright 1995, Gaussian, Inc.),
 the Gaussian 92(TM) system (copyright 1992, Gaussian, Inc.),
 the Gaussian 90(TM) system (copyright 1990, Gaussian, Inc.),
 the Gaussian 88(TM) system (copyright 1988, Gaussian, Inc.),
 the Gaussian 86(TM) system (copyright 1986, Carnegie Mellon
 University), and the Gaussian 82(TM) system (copyright 1983,
 Carnegie Mellon University). Gaussian is a federally registered
 trademark of Gaussian, Inc.
  
 This software contains proprietary and confidential information,
 including trade secrets, belonging to Gaussian, Inc.
  
 This software is provided under written license and may be
 used, copied, transmitted, or stored only in accord with that
 written license.
  
 The following legend is applicable only to US Government
 contracts under FAR:
  
                    RESTRICTED RIGHTS LEGEND
  
 Use, reproduction and disclosure by the US Government is
 subject to restrictions as set forth in subparagraphs (a)
 and (c) of the Commercial Computer Software - Restricted
 Rights clause in FAR 52.227-19.
  
 Gaussian, Inc.
 340 Quinnipiac St., Bldg. 40, Wallingford CT 06492
  
  
 ---------------------------------------------------------------
 Warning -- This program may not be used in any manner that
 competes with the business of Gaussian, Inc. or will provide
 assistance to any competitor of Gaussian, Inc.  The licensee
 of this program is prohibited from giving any competitor of
 Gaussian, Inc. access to this program.  By using this program,
 the user acknowledges that Gaussian, Inc. is engaged in the
 business of creating and licensing software in the field of
 computational chemistry and represents and warrants to the
 licensee that it is not a competitor of Gaussian, Inc. and that
 it will not use this program in any manner prohibited above.
 ---------------------------------------------------------------
  

 Cite this work as:
 Gaussian 16, Revision C.02,
 M. J. Frisch, G. W. Trucks, H. B. Schlegel, G. E. Scuseria, 
 M. A. Robb, J. R. Cheeseman, G. Scalmani, V. Barone, 
 G. A. Petersson, H. Nakatsuji, X. Li, M. Caricato, A. V. Marenich, 
 J. Bloino, B. G. Janesko, R. Gomperts, B. Mennucci, H. P. Hratchian, 
 J. V. Ortiz, A. F. Izmaylov, J. L. Sonnenberg, D. Williams-Young, 
 F. Ding, F. Lipparini, F. Egidi, J. Goings, B. Peng, A. Petrone, 
 T. Henderson, D. Ranasinghe, V. G. Zakrzewski, J. Gao, N. Rega, 
 G. Zheng, W. Liang, M. Hada, M. Ehara, K. Toyota, R. Fukuda, 
 J. Hasegawa, M. Ishida, T. Nakajima, Y. Honda, O. Kitao, H. Nakai, 
 T. Vreven, K. Throssell, J. A. Montgomery, Jr., J. E. Peralta, 
 F. Ogliaro, M. J. Bearpark, J. J. Heyd, E. N. Brothers, K. N. Kudin, 
 V. N. Staroverov, T. A. Keith, R. Kobayashi, J. Normand, 
 K. Raghavachari, A. P. Rendell, J. C. Burant, S. S. Iyengar, 
 J. Tomasi, M. Cossi, J. M. Millam, M. Klene, C. Adamo, R. Cammi, 
 J. W. Ochterski, R. L. Martin, K. Morokuma, O. Farkas, 
 J. B. Foresman, and D. J. Fox, Gaussian, Inc., Wallingford CT, 2019.
 
 ******************************************
 Gaussian 16:  ES64L-G16RevC.02  7-Dec-2021
                22-Feb-2023 
 ******************************************
 %NProcShared=2
 Will use up to    2 processors via shared memory.
 %mem=110gb
 %chk=/scratch1/svicchi/G09-176060.pbs02/02-freq/FeFeFe-TS1-2xH2O-QST2-H2O_relax-
 TS-freq.chk
 ----------------------------------------------------------------------
 #p freq=raman scale=0.967 guess=read geom=allcheck gen um06l int=grid=
 ultrafine scf=(xqc,intrep,maxconventionalcycle=150) pop=(hirshfeld) no
 symm
 ----------------------------------------------------------------------
 1/10=4,29=7,30=1,38=1,114=967000/1,3;
 2/12=2,15=1,40=1/2;
 3/5=7,11=2,14=-4,25=1,30=1,71=2,74=-53,75=-5,116=2,140=1/1,2,3;
 4/5=1/1;
 5/5=2,8=3,13=1,17=20,38=6,85=150,98=1/2,8;
 8/6=4,10=90,11=11/1;
 10/13=10,15=4,31=1/2;
 11/6=3,8=1,9=11,15=111,16=1,31=1/1,2,10;
 10/6=1,31=1/2;
 6/7=2,8=2,9=2,10=2,28=1,79=1/1;
 7/8=1,10=1,25=1,30=1/1,2,3,16;
 1/10=4,30=1/3;
 99//99;
 Leave Link    1 at Wed Feb 22 06:50:49 2023, MaxMem= 14763950080 cpu:               0.0 elap:               0.1
 (Enter /software/commercial/gaussian/g16/AVX2/g16/l101.exe)
 Structure from the checkpoint file:  "/scratch1/svicchi/G09-176060.pbs02/02-freq/FeFeFe-TS1-2xH2O-QST2-H2O_relax-TS-freq.chk"
 -------------------------
 FeFeFe-TS1-2xH2O-reactant
 -------------------------
 Charge =  0 Multiplicity =15
 No Z-Matrix found in chk file; cartesian coordinates used.
  O                                                -0.015971122285     -0.011356381412     -0.008160389219
  O                                                -0.002755113438      0.033406618180      2.244547270644
  C                                                 0.535488928853      0.003317875984      1.125826951226
  H                                                 1.639226822676     -0.005300024869      1.109411207047
  O                                                -4.936029976676     -1.620160238748     -0.461565216794
  O                                                -3.893019417715      0.228797769436     -1.202087543164
  C                                                -4.878070388412     -0.530449287320     -1.078640573250
  H                                                -5.808546204258     -0.204102884649     -1.578320259586
  O                                                -1.369259918457     -2.202915078123      3.454614285339
  O                                                -1.747691887387     -1.643688308342     -1.603508626378
  O                                                -2.700619694341     -3.363438869470     -0.505994663549
  C                                                -2.021998798974     -2.854252294275     -1.423761362748
  H                                                -1.615595282372     -3.557002715289     -2.172075652590
  O                                                -2.489632872566      1.662384845735      2.465693612714
  O                                                -2.210245043061      1.902768311468      0.243711150311
  C                                                -2.485849393619      2.308307154270      1.406430571920
  H                                                -2.756421695939      3.376440831387      1.477498766892
  Fe                                               -1.866029392623     -0.203898263006      3.096539488279
  O                                                -3.813187111898     -0.608185997011      3.739528753459
  Fe                                               -3.663667548886     -2.405126111723      1.024431533717
  O                                                -5.103888017659     -1.841373651347      2.368726354440
  O                                                -2.806929796407     -3.564778810873      2.379048342599
  Fe                                               -1.978506649750      0.010022853730     -0.362795970994
  O                                                -2.543820848000     -0.911950273688      1.166883741699
  C                                                -4.880192115172     -1.133753108364      3.391903538934
  H                                                -5.753809852730     -0.975873267139      4.049575051716
  C                                                -1.855208480203     -3.306645954246      3.170634224123
  H                                                -1.415171101458     -4.190531657093      3.665041326986
  N                                                -2.048481441128     -0.151719237212      6.014098520453
  N                                                -1.858257910459      0.043794517580      7.109920244519
  O                                                -1.320180317052      0.388405244868      4.738289951891
  O                                                -1.504336662983      0.949052517662     -2.312156952376
  H                                                -1.430321382018      0.180933945859     -2.894135856348
  H                                                -2.335734724387      1.377612506023     -2.553212652615
  O                                                -5.209090331617     -3.990028717665      0.781006377265
  H                                                -5.637031071760     -3.695906496312     -0.034530172840
  H                                                -5.809486185839     -3.698737364005      1.482403626278
 Recover connectivity data from disk.
 ITRead=  0  0  0  0  0  0  0  0  0  0  0  0  0  0  0  0  0  0  0  0
 ITRead=  0  0  0  0  0  0  0  0  0  0  0  0  0  0  0  0  0
 MicOpt= -1 -1 -1 -1 -1 -1 -1 -1 -1 -1 -1 -1 -1 -1 -1 -1 -1 -1 -1 -1
 MicOpt= -1 -1 -1 -1 -1 -1 -1 -1 -1 -1 -1 -1 -1 -1 -1 -1 -1
 NAtoms=     37 NQM=       37 NQMF=       0 NMMI=      0 NMMIF=      0
                NMic=       0 NMicF=      0.
                    Isotopes and Nuclear Properties:
 (Nuclear quadrupole moments (NQMom) in fm**2, nuclear magnetic moments (NMagM)
  in nuclear magnetons)

  Atom         1           2           3           4           5           6           7           8           9          10
 IAtWgt=          16          16          12           1          16          16          12           1          16          16
 AtmWgt=  15.9949146  15.9949146  12.0000000   1.0078250  15.9949146  15.9949146  12.0000000   1.0078250  15.9949146  15.9949146
 NucSpn=           0           0           0           1           0           0           0           1           0           0
 AtZEff=   5.6000000   5.6000000   3.6000000   1.0000000   5.6000000   5.6000000   3.6000000   1.0000000   5.6000000   5.6000000
 NQMom=    0.0000000   0.0000000   0.0000000   0.0000000   0.0000000   0.0000000   0.0000000   0.0000000   0.0000000   0.0000000
 NMagM=    0.0000000   0.0000000   0.0000000   2.7928460   0.0000000   0.0000000   0.0000000   2.7928460   0.0000000   0.0000000
 AtZNuc=   8.0000000   8.0000000   6.0000000   1.0000000   8.0000000   8.0000000   6.0000000   1.0000000   8.0000000   8.0000000

  Atom        11          12          13          14          15          16          17          18          19          20
 IAtWgt=          16          12           1          16          16          12           1          56          16          56
 AtmWgt=  15.9949146  12.0000000   1.0078250  15.9949146  15.9949146  12.0000000   1.0078250  55.9349393  15.9949146  55.9349393
 NucSpn=           0           0           1           0           0           0           1           0           0           0
 AtZEff=   5.6000000   3.6000000   1.0000000   5.6000000   5.6000000   3.6000000   1.0000000  25.2200000   5.6000000  25.2200000
 NQMom=    0.0000000   0.0000000   0.0000000   0.0000000   0.0000000   0.0000000   0.0000000   0.0000000   0.0000000   0.0000000
 NMagM=    0.0000000   0.0000000   2.7928460   0.0000000   0.0000000   0.0000000   2.7928460   0.0000000   0.0000000   0.0000000
 AtZNuc=   8.0000000   6.0000000   1.0000000   8.0000000   8.0000000   6.0000000   1.0000000  26.0000000   8.0000000  26.0000000

  Atom        21          22          23          24          25          26          27          28          29          30
 IAtWgt=          16          16          56          16          12           1          12           1          14          14
 AtmWgt=  15.9949146  15.9949146  55.9349393  15.9949146  12.0000000   1.0078250  12.0000000   1.0078250  14.0030740  14.0030740
 NucSpn=           0           0           0           0           0           1           0           1           2           2
 AtZEff=   5.6000000   5.6000000  25.2200000   5.6000000   3.6000000   1.0000000   3.6000000   1.0000000   4.5500000   4.5500000
 NQMom=    0.0000000   0.0000000   0.0000000   0.0000000   0.0000000   0.0000000   0.0000000   0.0000000   2.0440000   2.0440000
 NMagM=    0.0000000   0.0000000   0.0000000   0.0000000   0.0000000   2.7928460   0.0000000   2.7928460   0.4037610   0.4037610
 AtZNuc=   8.0000000   8.0000000  26.0000000   8.0000000   6.0000000   1.0000000   6.0000000   1.0000000   7.0000000   7.0000000

  Atom        31          32          33          34          35          36          37
 IAtWgt=          16          16           1           1          16           1           1
 AtmWgt=  15.9949146  15.9949146   1.0078250   1.0078250  15.9949146   1.0078250   1.0078250
 NucSpn=           0           0           1           1           0           1           1
 AtZEff=   5.6000000   5.6000000   1.0000000   1.0000000   5.6000000   1.0000000   1.0000000
 NQMom=    0.0000000   0.0000000   0.0000000   0.0000000   0.0000000   0.0000000   0.0000000
 NMagM=    0.0000000   0.0000000   2.7928460   2.7928460   0.0000000   2.7928460   2.7928460
 AtZNuc=   8.0000000   8.0000000   1.0000000   1.0000000   8.0000000   1.0000000   1.0000000
 Leave Link  101 at Wed Feb 22 06:50:50 2023, MaxMem= 14763950080 cpu:               0.2 elap:               0.2
 (Enter /software/commercial/gaussian/g16/AVX2/g16/l103.exe)

 GradGradGradGradGradGradGradGradGradGradGradGradGradGradGradGradGradGrad
 Berny optimization.
 Initialization pass.
 Trust Radius=3.00D-01 FncErr=1.00D-07 GrdErr=1.00D-07 EigMax=2.50D+02 EigMin=1.00D-04
 Number of steps in this run=      2 maximum allowed number of steps=      2.
 GradGradGradGradGradGradGradGradGradGradGradGradGradGradGradGradGradGrad

 Leave Link  103 at Wed Feb 22 06:50:50 2023, MaxMem= 14763950080 cpu:               0.0 elap:               0.1
 (Enter /software/commercial/gaussian/g16/AVX2/g16/l202.exe)
                          Input orientation:                          
 ---------------------------------------------------------------------
 Center     Atomic      Atomic             Coordinates (Angstroms)
 Number     Number       Type             X           Y           Z
 ---------------------------------------------------------------------
      1          8           0       -0.015971   -0.011356   -0.008160
      2          8           0       -0.002755    0.033407    2.244547
      3          6           0        0.535489    0.003318    1.125827
      4          1           0        1.639227   -0.005300    1.109411
      5          8           0       -4.936030   -1.620160   -0.461565
      6          8           0       -3.893019    0.228798   -1.202088
      7          6           0       -4.878070   -0.530449   -1.078641
      8          1           0       -5.808546   -0.204103   -1.578320
      9          8           0       -1.369260   -2.202915    3.454614
     10          8           0       -1.747692   -1.643688   -1.603509
     11          8           0       -2.700620   -3.363439   -0.505995
     12          6           0       -2.021999   -2.854252   -1.423761
     13          1           0       -1.615595   -3.557003   -2.172076
     14          8           0       -2.489633    1.662385    2.465694
     15          8           0       -2.210245    1.902768    0.243711
     16          6           0       -2.485849    2.308307    1.406431
     17          1           0       -2.756422    3.376441    1.477499
     18         26           0       -1.866029   -0.203898    3.096539
     19          8           0       -3.813187   -0.608186    3.739529
     20         26           0       -3.663668   -2.405126    1.024432
     21          8           0       -5.103888   -1.841374    2.368726
     22          8           0       -2.806930   -3.564779    2.379048
     23         26           0       -1.978507    0.010023   -0.362796
     24          8           0       -2.543821   -0.911950    1.166884
     25          6           0       -4.880192   -1.133753    3.391904
     26          1           0       -5.753810   -0.975873    4.049575
     27          6           0       -1.855208   -3.306646    3.170634
     28          1           0       -1.415171   -4.190532    3.665041
     29          7           0       -2.048481   -0.151719    6.014099
     30          7           0       -1.858258    0.043795    7.109920
     31          8           0       -1.320180    0.388405    4.738290
     32          8           0       -1.504337    0.949053   -2.312157
     33          1           0       -1.430321    0.180934   -2.894136
     34          1           0       -2.335735    1.377613   -2.553213
     35          8           0       -5.209090   -3.990029    0.781006
     36          1           0       -5.637031   -3.695906   -0.034530
     37          1           0       -5.809486   -3.698737    1.482404
 ---------------------------------------------------------------------
                    Distance matrix (angstroms):
                    1          2          3          4          5
     1  O    0.000000
     2  O    2.253191   0.000000
     3  C    1.261051   1.241832   0.000000
     4  H    1.997169   1.996531   1.103894   0.000000
     5  O    5.196230   5.864685   5.923936   6.950521   0.000000
     6  O    4.063821   5.201118   5.008165   6.000298   2.248308
     7  C    5.005536   5.927074   5.869515   6.894818   1.253639
     8  H    6.004705   6.955425   6.899436   7.920401   2.003408
     9  O    4.315684   2.886647   3.730788   4.402327   5.328969
    10  O    2.865048   4.545876   3.921073   4.638477   3.386752
    11  O    4.323382   5.136391   4.946746   5.720219   2.835146
    12  C    3.756345   5.086493   4.605090   5.285647   3.307625
    13  H    4.451172   5.915983   5.308409   5.828946   4.207433
    14  O    3.878191   2.981113   3.701231   4.654907   5.032773
    15  O    2.922696   3.517225   3.453273   4.382761   4.509805
    16  C    3.671812   3.470356   3.810538   4.738908   4.992559
    17  H    4.603740   4.398513   4.726342   5.558182   5.785904
    18  Fe   3.619247   2.062522   3.113509   4.034221   4.908239
    19  O    5.368448   4.143188   5.110417   6.083569   4.464757
    20  Fe   4.483533   4.564801   4.841880   5.821261   2.107905
    21  O    5.906391   5.436155   6.062199   7.101172   2.843882
    22  O    5.110286   4.563817   5.047142   5.835253   4.047678
    23  Fe   1.994435   3.271449   2.921680   3.905845   3.378490
    24  O    2.929475   2.917546   3.212717   4.280561   2.979274
    25  C    6.039938   5.144714   5.979769   6.999000   3.884447
    26  H    7.093540   6.111579   7.004456   8.015208   4.629714
    27  C    4.934213   3.930035   4.566457   5.230545   5.052580
    28  H    5.737219   4.674867   5.276463   5.777262   6.002678
    29  N    6.357547   4.292876   5.531378   6.138126   7.240751
    30  N    7.352832   5.207192   6.445233   6.945568   8.340792
    31  O    4.938579   2.842602   4.079423   4.699133   6.644336
    32  O    2.906203   4.884333   4.107924   4.743407   4.669268
    33  H    3.219661   5.335333   4.478399   5.048287   4.631558
    34  H    3.713197   5.501653   4.864971   5.579210   4.485885
    35  O    6.589469   6.740616   7.004706   7.930029   2.689763
    36  H    6.721080   7.130711   7.289080   8.238514   2.232148
    37  H    7.027331   6.944630   7.354663   8.322495   2.976982
                    6          7          8          9         10
     6  O    0.000000
     7  C    1.249808   0.000000
     8  H    1.999549   1.105426   0.000000
     9  O    5.828161   5.971540   7.002353   0.000000
    10  O    2.875721   3.363637   4.308547   5.102994   0.000000
    11  O    3.848445   3.618708   4.559659   4.336561   2.251699
    12  C    3.613178   3.698150   4.624405   4.964762   1.254200
    13  H    4.523254   4.582507   5.401418   5.792571   2.000372
    14  O    4.180584   4.803692   5.554549   4.144122   5.295187
    15  O    2.779252   3.845316   4.550437   5.279564   4.025361
    16  C    3.620615   4.467308   5.124574   5.078676   5.022238
    17  H    4.287155   5.128258   5.610150   6.079672   5.975938
    18  Fe   4.772223   5.158600   6.115370   2.090709   4.917057
    19  O    5.012633   4.935056   5.694230   2.932084   5.821218
    20  Fe   3.456522   3.067915   4.027322   3.348281   3.340183
    21  O    4.301456   3.695112   4.330863   3.906061   5.204016
    22  O    5.328729   5.045036   5.997050   2.253533   4.546794
    23  Fe   2.101816   3.035130   4.023997   4.454312   2.080241
    24  O    2.955278   3.261387   4.323844   2.877481   2.973943
    25  C    4.892424   4.511069   5.140935   3.670652   5.918339
    26  H    5.700327   5.221486   5.680830   4.591720   6.960770
    27  C    5.981031   5.907732   6.914277   1.238956   5.056622
    28  H    7.025607   6.920288   7.917462   1.999252   5.861280
    29  N    7.457912   7.645715   8.472642   3.349583   7.768165
    30  N    8.559437   8.746517   9.547343   4.318343   8.876016
    31  O    6.475574   6.880375   7.771490   2.892261   6.673124
    32  O    2.730719   3.884915   4.516027   6.573340   2.698835
    33  H    2.988344   3.960942   4.587862   6.781821   2.257363
    34  H    2.360180   3.504074   3.938611   7.060328   3.221178
    35  O    4.843883   3.941643   4.501000   5.008618   4.813783
    36  H    4.450626   3.418524   3.821701   5.711132   4.669074
    37  H    5.128827   4.179059   4.645482   5.083572   5.499478
                   11         12         13         14         15
    11  O    0.000000
    12  C    1.249837   0.000000
    13  H    1.997641   1.104082   0.000000
    14  O    5.842461   5.978842   7.036679   0.000000
    15  O    5.341860   5.044318   5.999894   2.252343   0.000000
    16  C    5.989340   5.905689   6.925670   1.240672   1.261878
    17  H    7.025905   6.912179   7.917924   1.996420   1.998062
    18  Fe   4.863897   5.242311   6.250147   2.066364   3.563027
    19  O    5.182055   5.908700   6.962183   2.920607   4.592935
    20  Fe   2.046467   2.981684   3.967251   4.472163   4.613016
    21  O    4.044305   4.990684   5.977495   4.372649   5.187240
    22  O    2.894013   3.947446   4.704473   5.237502   5.899980
    23  Fe   3.452853   3.054769   4.016076   3.315404   2.001009
    24  O    2.972020   3.279676   4.359651   2.883929   2.980966
    25  C    4.991557   5.858329   6.891124   3.793551   5.124470
    26  H    5.981275   6.885647   7.905440   4.485971   5.943739
    27  C    3.773002   4.619627   5.353937   5.058725   5.985894
    28  H    4.442297   5.296206   5.874816   6.070382   7.033203
    29  N    7.297400   7.913668   8.876756   4.009584   6.127353
    30  N    8.385760   9.013834   9.958919   4.958559   7.122114
    31  O    6.594275   6.998447   7.962830   2.855755   4.825635
    32  O    4.826064   3.939841   4.509605   4.930264   2.817861
    33  H    4.458638   3.424097   3.811544   5.660796   3.663206
    34  H    5.177047   4.391215   5.001429   5.029334   2.848564
    35  O    2.888150   4.038384   4.671339   6.494875   6.633763
    36  H    2.992545   3.963181   4.556352   6.698397   6.570041
    37  H    3.705564   4.848094   5.564533   6.381999   6.772427
                   16         17         18         19         20
    16  C    0.000000
    17  H    1.104160   0.000000
    18  Fe   3.090602   4.029010   0.000000
    19  O    3.963724   4.702211   2.090050   0.000000
    20  Fe   4.873359   5.869828   3.517178   3.259310   0.000000
    21  O    4.999999   5.790550   3.700644   2.250724   2.049190
    22  O    5.961729   6.999705   3.563089   3.406597   1.978328
    23  Fe   2.944430   3.914666   3.467768   4.536221   3.255321
    24  O    3.229675   4.304879   2.164327   2.884799   1.871877
    25  C    4.639263   5.340149   3.168130   1.239179   2.949787
    26  H    5.334006   5.877291   4.076648   1.999335   3.944991
    27  C    5.919275   6.952880   3.103651   3.382160   2.947787
    28  H    6.962943   7.990205   4.052125   4.311523   3.900799
    29  N    5.241529   5.790495   2.923724   2.914827   5.708191
    30  N    6.168605   6.605861   4.021024   3.950489   6.803667
    31  O    4.018220   4.650151   1.828693   2.864577   5.204661
    32  O    4.079073   4.671340   5.542032   6.661733   5.200581
    33  H    4.912711   5.575033   6.018815   7.092691   5.199107
    34  H    4.070320   4.518731   5.885703   6.762016   5.373272
    35  O    6.890300   7.795227   5.556306   4.705131   2.226994
    36  H    6.932308   7.784744   6.018154   5.206145   2.584894
    37  H    6.865633   7.705801   5.510915   4.316403   2.547098
                   21         22         23         24         25
    21  O    0.000000
    22  O    2.871628   0.000000
    23  Fe   4.544985   4.580743   0.000000
    24  O    2.976944   2.928493   1.873375   0.000000
    25  C    1.263985   3.351743   4.881165   3.233967   0.000000
    26  H    1.999185   4.263472   5.890155   4.314861   1.104837
    27  C    3.652944   1.264521   4.847744   3.197463   3.731079
    28  H    4.561317   1.995579   5.846835   4.273609   4.628701
    29  N    5.047691   5.043591   6.379329   4.931410   3.982321
    30  N    6.047057   6.025191   7.473760   6.058311   4.933797
    31  O    4.990310   4.837779   5.157290   3.992889   4.099196
    32  O    6.530997   6.639189   2.215090   4.080145   6.947718
    33  H    6.729230   6.613009   2.595650   4.350420   7.290014
    34  H    6.500002   6.998318   2.606883   4.373158   6.937264
    35  O    2.673694   2.916325   5.267387   4.089881   3.883718
    36  H    3.082073   3.721831   5.217899   4.331484   4.344869
    37  H    2.175600   3.136441   5.642346   4.304684   3.330003
                   26         27         28         29         30
    26  H    0.000000
    27  C    4.626460   0.000000
    28  H    5.413472   1.104231   0.000000
    29  N    4.274113   4.251612   4.714993   0.000000
    30  N    5.057743   5.171406   5.476590   1.129263   0.000000
    31  O    4.689633   4.049346   4.703993   1.565198   2.456199
    32  O    7.888916   6.949466   7.883538   8.416313   9.472080
    33  H    8.261106   7.008936   7.882433   8.935850  10.014144
    34  H    7.798650   7.411856   8.397520   8.707479   9.766432
    35  O    4.479441   4.174429   4.769872   7.218540   8.219182
    36  H    4.908374   4.972603   5.635209   7.875586   8.905485
    37  H    3.742654   4.317426   4.931103   6.874791   7.828646
                   31         32         33         34         35
    31  O    0.000000
    32  O    7.075100   0.000000
    33  H    7.636039   0.966532   0.000000
    34  H    7.428048   0.965916   1.538844   0.000000
    35  O    7.067843   6.905605   6.721807   6.941524   0.000000
    36  H    7.622114   6.621359   6.395596   6.556136   0.966820
    37  H    6.889078   7.384778   7.306369   7.356798   0.968134
                   36         37
    36  H    0.000000
    37  H    1.526708   0.000000
 Symmetry turned off by external request.
 Stoichiometry    C6H10Fe3N2O16(15)
 Framework group  C1[X(C6H10Fe3N2O16)]
 Deg. of freedom   105
 Full point group                 C1      NOp   1
 Rotational constants (GHZ):           0.2139874           0.1574793           0.1216389
 Leave Link  202 at Wed Feb 22 06:50:50 2023, MaxMem= 14763950080 cpu:               0.0 elap:               0.0
 (Enter /software/commercial/gaussian/g16/AVX2/g16/l301.exe)
 General basis read from cards:  (5D, 7F)
 Centers:       4      8     13     17     26     28     33     34     36     37
 S 3 1.00
     Exponent=  3.4061341000D+01 Coefficients=  6.0251978000D-03
     Exponent=  5.1235746000D+00 Coefficients=  4.5021094000D-02
     Exponent=  1.1646626000D+00 Coefficients=  2.0189726000D-01
 S 1 1.00
     Exponent=  3.2723041000D-01 Coefficients=  1.0000000000D+00
 S 1 1.00
     Exponent=  1.0307241000D-01 Coefficients=  1.0000000000D+00
 P 1 1.00
     Exponent=  8.0000000000D-01 Coefficients=  1.0000000000D+00
 ****
 Centers:       1      2      5      6      9     10     11     14     15     19
 Centers:      21     22     24     31     32     35
 S 6 1.00
     Exponent=  2.7032382631D+04 Coefficients=  2.1726302465D-04
     Exponent=  4.0523871392D+03 Coefficients=  1.6838662199D-03
     Exponent=  9.2232722710D+02 Coefficients=  8.7395616265D-03
     Exponent=  2.6124070989D+02 Coefficients=  3.5239968808D-02
     Exponent=  8.5354641351D+01 Coefficients=  1.1153519115D-01
     Exponent=  3.1035035245D+01 Coefficients=  2.5588953961D-01
 S 2 1.00
     Exponent=  1.2260860728D+01 Coefficients=  3.9768730901D-01
     Exponent=  4.9987076005D+00 Coefficients=  2.4627849430D-01
 S 1 1.00
     Exponent=  1.1703108158D+00 Coefficients=  1.0000000000D+00
 S 1 1.00
     Exponent=  4.6474740994D-01 Coefficients=  1.0000000000D+00
 S 1 1.00
     Exponent=  1.8504536357D-01 Coefficients=  1.0000000000D+00
 P 4 1.00
     Exponent=  6.3274954801D+01 Coefficients=  6.0685103418D-03
     Exponent=  1.4627049379D+01 Coefficients=  4.1912575824D-02
     Exponent=  4.4501223456D+00 Coefficients=  1.6153841088D-01
     Exponent=  1.5275799647D+00 Coefficients=  3.5706951311D-01
 P 1 1.00
     Exponent=  5.2935117943D-01 Coefficients=  4.4794207502D-01
 P 1 1.00
     Exponent=  1.7478421270D-01 Coefficients=  2.4446069663D-01
 D 1 1.00
     Exponent=  2.3140000000D+00 Coefficients=  1.0000000000D+00
 D 1 1.00
     Exponent=  6.4500000000D-01 Coefficients=  1.0000000000D+00
 F 1 1.00
     Exponent=  1.4280000000D+00 Coefficients=  1.0000000000D+00
 ****
 Centers:       3      7     12     16     25     27
 S 6 1.00
     Exponent=  1.3575349682D+04 Coefficients=  2.2245814352D-04
     Exponent=  2.0352333680D+03 Coefficients=  1.7232738252D-03
     Exponent=  4.6322562359D+02 Coefficients=  8.9255715314D-03
     Exponent=  1.3120019598D+02 Coefficients=  3.5727984502D-02
     Exponent=  4.2853015891D+01 Coefficients=  1.1076259931D-01
     Exponent=  1.5584185766D+01 Coefficients=  2.4295627626D-01
 S 2 1.00
     Exponent=  6.2067138508D+00 Coefficients=  4.1440263448D-01
     Exponent=  2.5764896527D+00 Coefficients=  2.3744968655D-01
 S 1 1.00
     Exponent=  5.7696339419D-01 Coefficients=  1.0000000000D+00
 S 1 1.00
     Exponent=  2.2972831358D-01 Coefficients=  1.0000000000D+00
 S 1 1.00
     Exponent=  9.5164440028D-02 Coefficients=  1.0000000000D+00
 P 4 1.00
     Exponent=  3.4697232244D+01 Coefficients=  5.3333657805D-03
     Exponent=  7.9582622826D+00 Coefficients=  3.5864109092D-02
     Exponent=  2.3780826883D+00 Coefficients=  1.4215873329D-01
     Exponent=  8.1433208183D-01 Coefficients=  3.4270471845D-01
 P 1 1.00
     Exponent=  2.8887547253D-01 Coefficients=  4.6445822433D-01
 P 1 1.00
     Exponent=  1.0056823671D-01 Coefficients=  2.4955789874D-01
 D 1 1.00
     Exponent=  1.0970000000D+00 Coefficients=  1.0000000000D+00
 D 1 1.00
     Exponent=  3.1800000000D-01 Coefficients=  1.0000000000D+00
 F 1 1.00
     Exponent=  7.6100000000D-01 Coefficients=  1.0000000000D+00
 ****
 Centers:      18     20     23
 S 8 1.00
     Exponent=  3.0078484637D+05 Coefficients=  2.2806273096D-04
     Exponent=  4.5088970557D+04 Coefficients=  1.7681788761D-03
     Exponent=  1.0262516317D+04 Coefficients=  9.1927083490D-03
     Exponent=  2.9052897293D+03 Coefficients=  3.7355495807D-02
     Exponent=  9.4611487137D+02 Coefficients=  1.2151108426D-01
     Exponent=  3.3987832894D+02 Coefficients=  2.8818881468D-01
     Exponent=  1.3194425588D+02 Coefficients=  4.1126612677D-01
     Exponent=  5.2111494077D+01 Coefficients=  2.1518583573D-01
 S 4 1.00
     Exponent=  3.2948839267D+02 Coefficients= -2.4745216477D-02
     Exponent=  1.0192332739D+02 Coefficients= -1.1683089050D-01
     Exponent=  1.6240462745D+01 Coefficients=  5.5293621136D-01
     Exponent=  6.8840675801D+00 Coefficients=  5.3601640182D-01
 S 2 1.00
     Exponent=  1.0470693782D+01 Coefficients= -2.2912708577D-01
     Exponent=  1.7360039648D+00 Coefficients=  7.1159319984D-01
 S 1 1.00
     Exponent=  7.2577288979D-01 Coefficients=  1.0000000000D+00
 S 1 1.00
     Exponent=  1.1595528203D-01 Coefficients=  1.0000000000D+00
 S 1 1.00
     Exponent=  4.1968227746D-02 Coefficients=  1.0000000000D+00
 P 6 1.00
     Exponent=  1.5853959970D+03 Coefficients=  2.3793960179D-03
     Exponent=  3.7538006499D+02 Coefficients=  1.9253154755D-02
     Exponent=  1.2031816501D+02 Coefficients=  9.0021836536D-02
     Exponent=  4.4788749031D+01 Coefficients=  2.5798172356D-01
     Exponent=  1.7829278584D+01 Coefficients=  4.1492649744D-01
     Exponent=  7.2247153786D+00 Coefficients=  2.4207474784D-01
 P 3 1.00
     Exponent=  2.8143219756D+01 Coefficients= -2.9041755152D-02
     Exponent=  3.8743241412D+00 Coefficients=  5.5312260343D-01
     Exponent=  1.5410752281D+00 Coefficients=  9.6771136842D-01
 P 1 1.00
     Exponent=  5.8285615250D-01 Coefficients=  1.0000000000D+00
 P 1 1.00
     Exponent=  1.3491500000D-01 Coefficients=  1.0000000000D+00
 D 4 1.00
     Exponent=  6.1996675034D+01 Coefficients=  1.1971972255D-02
     Exponent=  1.7873732552D+01 Coefficients=  7.3210135410D-02
     Exponent=  6.2744782934D+00 Coefficients=  2.3103094314D-01
     Exponent=  2.3552337175D+00 Coefficients=  3.9910706494D-01
 D 1 1.00
     Exponent=  8.5432239901D-01 Coefficients=  4.1391589765D-01
 D 1 1.00
     Exponent=  2.7869254413D-01 Coefficients=  2.1909269782D-01
 D 1 1.00
     Exponent=  9.1000000000D-02 Coefficients=  1.0000000000D+00
 F 1 1.00
     Exponent=  1.5980000000D+00 Coefficients=  1.0000000000D+00
 ****
 Centers:      29     30
 S 6 1.00
     Exponent=  1.9730800647D+04 Coefficients=  2.1887984991D-04
     Exponent=  2.9578958745D+03 Coefficients=  1.6960708803D-03
     Exponent=  6.7322133595D+02 Coefficients=  8.7954603538D-03
     Exponent=  1.9068249494D+02 Coefficients=  3.5359382605D-02
     Exponent=  6.2295441898D+01 Coefficients=  1.1095789217D-01
     Exponent=  2.2654161182D+01 Coefficients=  2.4982972552D-01
 S 2 1.00
     Exponent=  8.9791477428D+00 Coefficients=  4.0623896148D-01
     Exponent=  3.6863002370D+00 Coefficients=  2.4338217176D-01
 S 1 1.00
     Exponent=  8.4660076805D-01 Coefficients=  1.0000000000D+00
 S 1 1.00
     Exponent=  3.3647133771D-01 Coefficients=  1.0000000000D+00
 S 1 1.00
     Exponent=  1.3647653675D-01 Coefficients=  1.0000000000D+00
 P 4 1.00
     Exponent=  4.9200380510D+01 Coefficients=  5.5552416751D-03
     Exponent=  1.1346790537D+01 Coefficients=  3.8052379723D-02
     Exponent=  3.4273972411D+00 Coefficients=  1.4953671029D-01
     Exponent=  1.1785525134D+00 Coefficients=  3.4949305230D-01
 P 1 1.00
     Exponent=  4.1642204972D-01 Coefficients=  4.5843153697D-01
 P 1 1.00
     Exponent=  1.4260826011D-01 Coefficients=  2.4428771672D-01
 D 1 1.00
     Exponent=  1.6540000000D+00 Coefficients=  1.0000000000D+00
 D 1 1.00
     Exponent=  4.6900000000D-01 Coefficients=  1.0000000000D+00
 F 1 1.00
     Exponent=  1.0930000000D+00 Coefficients=  1.0000000000D+00
 ****
 Ernie: Thresh=  0.10000D-02 Tol=  0.10000D-05 Strict=F.
   939 basis functions,  1610 primitive gaussians,  1080 cartesian basis functions
   140 alpha electrons      126 beta electrons
       nuclear repulsion energy      5036.8796303807 Hartrees.
 IExCor= 4134 DFT=T Ex+Corr=M06L ExCW=0 ScaHFX=  0.000000
 ScaDFX=  1.000000  1.000000  1.000000  1.000000 ScalE2=  1.000000  1.000000
 IRadAn=      5 IRanWt=     -1 IRanGd=            0 ICorTp=0 IEmpDi=  4
 NAtoms=   37 NActive=   37 NUniq=   37 SFac= 1.00D+00 NAtFMM=   60 NAOKFM=F Big=F
 Integral buffers will be    131072 words long.
 Raffenetti 2 integral format.
 Two-electron integral symmetry is turned off.
 Leave Link  301 at Wed Feb 22 06:50:51 2023, MaxMem= 14763950080 cpu:               0.1 elap:               0.1
 (Enter /software/commercial/gaussian/g16/AVX2/g16/l302.exe)
 NPDir=0 NMtPBC=     1 NCelOv=     1 NCel=       1 NClECP=     1 NCelD=      1
         NCelK=      1 NCelE2=     1 NClLst=     1 CellRange=     0.0.
 One-electron integrals computed using PRISM.
 NBasis=   939 RedAO= T EigKep=  2.35D-04  NBF=   939
 NBsUse=   939 1.00D-06 EigRej= -1.00D+00 NBFU=   939
 Precomputing XC quadrature grid using
 IXCGrd= 4 IRadAn=           5 IRanWt=          -1 IRanGd=           0 AccXCQ= 0.00D+00.
 Generated NRdTot=       0 NPtTot=           0 NUsed=           0 NTot=          32
 NSgBfM=  1056  1056  1056  1056  1056 MxSgAt=    37 MxSgA2=    37.
 Leave Link  302 at Wed Feb 22 06:50:53 2023, MaxMem= 14763950080 cpu:               3.2 elap:               2.0
 (Enter /software/commercial/gaussian/g16/AVX2/g16/l303.exe)
 DipDrv:  MaxL=1.
 Leave Link  303 at Wed Feb 22 06:50:54 2023, MaxMem= 14763950080 cpu:               0.2 elap:               0.2
 (Enter /software/commercial/gaussian/g16/AVX2/g16/l401.exe)
 Initial guess from the checkpoint file:  "/scratch1/svicchi/G09-176060.pbs02/02-freq/FeFeFe-TS1-2xH2O-QST2-H2O_relax-TS-freq.chk"
 B after Tr=     0.000000    0.000000    0.000000
         Rot=    1.000000    0.000000    0.000000    0.000000 Ang=   0.00 deg.
 Guess basis will be translated and rotated to current coordinates.
 JPrj=2 DoOrth=T DoCkMO=T.
 Initial guess <Sx>= 0.0000 <Sy>= 0.0000 <Sz>= 7.0000 <S**2>=56.7081 S= 7.0471
 Leave Link  401 at Wed Feb 22 06:50:56 2023, MaxMem= 14763950080 cpu:               3.1 elap:               2.3
 (Enter /software/commercial/gaussian/g16/AVX2/g16/l502.exe)
 Two-electron integral symmetry not used.
 UHF open shell SCF:
 Using DIIS extrapolation, IDIIS=  1040.
 NGot= 14763950080 LenX= 14761603088 LenY= 14760435608
 Requested convergence on RMS density matrix=1.00D-08 within 150 cycles.
 Requested convergence on MAX density matrix=1.00D-06.
 Requested convergence on             energy=1.00D-06.
 No special actions if energy rises.
 Fock matrices will be formed incrementally for  20 cycles.

 Cycle   1  Pass 1  IDiag  1:
 FoFJK:  IHMeth= 1 ICntrl=     500 DoSepK=F KAlg= 0 I1Cent=           0 FoldK=F
 IRaf= 750000000 NMat=       1 IRICut=       1 DoRegI=T DoRafI=F ISym2E= 0 IDoP0=0 IntGTp=1.
 FoFCou: FMM=F IPFlag=           0 FMFlag=      100000 FMFlg1=           0
         NFxFlg=           0 DoJE=T BraDBF=F KetDBF=F FulRan=T
         wScrn=  0.000000 ICntrl=       500 IOpCl=  0 I1Cent=           0 NGrid=           0
         NMat0=    1 NMatS0=      1 NMatT0=    0 NMatD0=    1 NMtDS0=    0 NMtDT0=    0
 Symmetry not used in FoFCou.
 E= -5339.70184865066    
 DIIS: error= 9.20D-08 at cycle   1 NSaved=   1.
 NSaved= 1 IEnMin= 1 EnMin= -5339.70184865066     IErMin= 1 ErrMin= 9.20D-08
 ErrMax= 9.20D-08  0.00D+00 EMaxC= 1.00D-01 BMatC= 1.12D-10 BMatP= 1.12D-10
 IDIUse=1 WtCom= 1.00D+00 WtEn= 0.00D+00
 Coeff-Com:  0.100D+01
 Coeff:      0.100D+01
 Gap=     0.080 Goal=   None    Shift=    0.000
 Gap=     0.031 Goal=   None    Shift=    0.000
 RMSDP=1.33D-08 MaxDP=1.35D-06              OVMax= 6.96D-06

 Cycle   2  Pass 1  IDiag  1:
 RMSU=  1.33D-08    CP:  1.00D+00
 E= -5339.70184865045     Delta-E=        0.000000000211 Rises=F Damp=F
 DIIS: error= 3.64D-07 at cycle   2 NSaved=   2.
 NSaved= 2 IEnMin= 1 EnMin= -5339.70184865066     IErMin= 1 ErrMin= 9.20D-08
 ErrMax= 3.64D-07  0.00D+00 EMaxC= 1.00D-01 BMatC= 1.04D-09 BMatP= 1.12D-10
 IDIUse=1 WtCom= 1.00D+00 WtEn= 0.00D+00
 Coeff-Com:  0.759D+00 0.241D+00
 Coeff:      0.759D+00 0.241D+00
 Gap=     0.080 Goal=   None    Shift=    0.000
 Gap=     0.031 Goal=   None    Shift=    0.000
 RMSDP=1.35D-08 MaxDP=1.67D-06 DE= 2.11D-10 OVMax= 1.22D-05

 Cycle   3  Pass 1  IDiag  1:
 RMSU=  6.08D-09    CP:  1.00D+00  9.54D-02
 E= -5339.70184865059     Delta-E=       -0.000000000133 Rises=F Damp=F
 DIIS: error= 3.21D-07 at cycle   3 NSaved=   3.
 NSaved= 3 IEnMin= 1 EnMin= -5339.70184865066     IErMin= 1 ErrMin= 9.20D-08
 ErrMax= 3.21D-07  0.00D+00 EMaxC= 1.00D-01 BMatC= 2.23D-10 BMatP= 1.12D-10
 IDIUse=1 WtCom= 1.00D+00 WtEn= 0.00D+00
 Coeff-Com:  0.624D+00 0.220D+00 0.156D+00
 Coeff:      0.624D+00 0.220D+00 0.156D+00
 Gap=     0.080 Goal=   None    Shift=    0.000
 Gap=     0.031 Goal=   None    Shift=    0.000
 RMSDP=5.58D-09 MaxDP=7.88D-07 DE=-1.33D-10 OVMax= 6.29D-06

 SCF Done:  E(UM06L) =  -5339.70184865     A.U. after    3 cycles
            NFock=  3  Conv=0.56D-08     -V/T= 2.0017
 <Sx>= 0.0000 <Sy>= 0.0000 <Sz>= 7.0000 <S**2>=56.7081 S= 7.0471
 <L.S>=  0.00000000000    
 KE= 5.330668544729D+03 PE=-2.274613888464D+04 EE= 7.038888860876D+03
 Annihilation of the first spin contaminant:
 S**2 before annihilation    56.7081,   after    56.0059
 Leave Link  502 at Wed Feb 22 07:01:10 2023, MaxMem= 14763950080 cpu:            1219.6 elap:             613.8
 (Enter /software/commercial/gaussian/g16/AVX2/g16/l508.exe)
 QCSCF skips out because SCF is already converged.
 Leave Link  508 at Wed Feb 22 07:01:11 2023, MaxMem= 14763950080 cpu:               0.0 elap:               0.1
 (Enter /software/commercial/gaussian/g16/AVX2/g16/l801.exe)
 DoSCS=F DFT=T ScalE2(SS,OS)=  1.000000  1.000000
 Range of M.O.s used for correlation:     1   939
 NBasis=   939 NAE=   140 NBE=   126 NFC=     0 NFV=     0
 NROrb=    939 NOA=   140 NOB=   126 NVA=   799 NVB=   813

 **** Warning!!: The largest alpha MO coefficient is  0.12426049D+02


 **** Warning!!: The smallest alpha delta epsilon is  0.79728464D-01


 **** Warning!!: The largest beta MO coefficient is  0.14514115D+02


 **** Warning!!: The smallest beta delta epsilon is  0.31384491D-01

 Leave Link  801 at Wed Feb 22 07:01:11 2023, MaxMem= 14763950080 cpu:               0.1 elap:               0.1
 (Enter /software/commercial/gaussian/g16/AVX2/g16/l1002.exe)
 Minotr:  UHF open shell wavefunction.
          Direct CPHF calculation.
          Differentiating once with respect to electric field.
                with respect to dipole field.
          Electric field/nuclear overlap derivatives assumed to be zero.
          Requested convergence is 1.0D-08 RMS, and 1.0D-07 maximum.
          Secondary convergence is 1.0D-12 RMS, and 1.0D-12 maximum.
          NewPWx=F KeepS1=T KeepF1=T KeepIn=T MapXYZ=F SortEE=F KeepMc=T.
        11391 words used for storage of precomputed grid.
 Two-electron integral symmetry not used.
          MDV=   14763950080 using IRadAn=       1.
          Solving linear equations simultaneously, MaxMat=     384.
          There are     3 degrees of freedom in the 1st order CPHF.  IDoFFX=0 NUNeed=     3.
      3 vectors produced by pass  0 Test12= 7.14D-12 3.33D-08 XBig12= 2.66D+03 2.69D+01.
 AX will form     3 AO Fock derivatives at one time.
 FoFJK:  IHMeth= 1 ICntrl=     500 DoSepK=F KAlg= 0 I1Cent=           0 FoldK=F
 IRaf= 750000000 NMat=       3 IRICut=       1 DoRegI=T DoRafI=F ISym2E= 0 IDoP0=0 IntGTp=1.
 FoFCou: FMM=F IPFlag=           0 FMFlag=      100000 FMFlg1=           0
         NFxFlg=           0 DoJE=T BraDBF=F KetDBF=F FulRan=T
         wScrn=  0.000000 ICntrl=       500 IOpCl=  0 I1Cent=           0 NGrid=           0
         NMat0=    3 NMatS0=      3 NMatT0=    0 NMatD0=    3 NMtDS0=    0 NMtDT0=    0
 Symmetry not used in FoFCou.
      3 vectors produced by pass  1 Test12= 7.14D-12 3.33D-08 XBig12= 7.15D+03 3.37D+01.
      3 vectors produced by pass  2 Test12= 7.14D-12 3.33D-08 XBig12= 1.15D+04 1.69D+01.
      3 vectors produced by pass  3 Test12= 7.14D-12 3.33D-08 XBig12= 2.06D+04 4.01D+01.
      3 vectors produced by pass  4 Test12= 7.14D-12 3.33D-08 XBig12= 1.70D+04 2.28D+01.
      3 vectors produced by pass  5 Test12= 7.14D-12 3.33D-08 XBig12= 2.77D+04 3.53D+01.
      3 vectors produced by pass  6 Test12= 7.14D-12 3.33D-08 XBig12= 1.68D+04 3.02D+01.
      3 vectors produced by pass  7 Test12= 7.14D-12 3.33D-08 XBig12= 1.08D+04 2.33D+01.
      3 vectors produced by pass  8 Test12= 7.14D-12 3.33D-08 XBig12= 5.30D+03 1.54D+01.
      3 vectors produced by pass  9 Test12= 7.14D-12 3.33D-08 XBig12= 2.47D+03 8.38D+00.
      3 vectors produced by pass 10 Test12= 7.14D-12 3.33D-08 XBig12= 1.83D+03 8.25D+00.
      3 vectors produced by pass 11 Test12= 7.14D-12 3.33D-08 XBig12= 1.53D+03 7.92D+00.
      3 vectors produced by pass 12 Test12= 7.14D-12 3.33D-08 XBig12= 9.50D+02 7.72D+00.
      3 vectors produced by pass 13 Test12= 7.14D-12 3.33D-08 XBig12= 1.99D+02 2.24D+00.
      3 vectors produced by pass 14 Test12= 7.14D-12 3.33D-08 XBig12= 9.59D+01 1.61D+00.
      3 vectors produced by pass 15 Test12= 7.14D-12 3.33D-08 XBig12= 4.16D+01 5.91D-01.
      3 vectors produced by pass 16 Test12= 7.14D-12 3.33D-08 XBig12= 1.68D+01 4.88D-01.
      3 vectors produced by pass 17 Test12= 7.14D-12 3.33D-08 XBig12= 4.08D+00 3.76D-01.
      3 vectors produced by pass 18 Test12= 7.14D-12 3.33D-08 XBig12= 7.61D-01 2.04D-01.
      3 vectors produced by pass 19 Test12= 7.14D-12 3.33D-08 XBig12= 9.81D-02 5.45D-02.
      3 vectors produced by pass 20 Test12= 7.14D-12 3.33D-08 XBig12= 9.33D-03 1.21D-02.
      3 vectors produced by pass 21 Test12= 7.14D-12 3.33D-08 XBig12= 9.22D-04 2.72D-03.
      3 vectors produced by pass 22 Test12= 7.14D-12 3.33D-08 XBig12= 1.11D-04 9.06D-04.
      3 vectors produced by pass 23 Test12= 7.14D-12 3.33D-08 XBig12= 1.58D-05 3.09D-04.
      3 vectors produced by pass 24 Test12= 7.14D-12 3.33D-08 XBig12= 1.67D-06 1.18D-04.
      3 vectors produced by pass 25 Test12= 7.14D-12 3.33D-08 XBig12= 1.76D-07 4.94D-05.
      3 vectors produced by pass 26 Test12= 7.14D-12 3.33D-08 XBig12= 1.69D-08 1.05D-05.
      3 vectors produced by pass 27 Test12= 7.14D-12 3.33D-08 XBig12= 1.78D-09 5.43D-06.
      3 vectors produced by pass 28 Test12= 7.14D-12 3.33D-08 XBig12= 2.00D-10 1.88D-06.
      3 vectors produced by pass 29 Test12= 7.14D-12 3.33D-08 XBig12= 1.69D-11 4.44D-07.
      3 vectors produced by pass 30 Test12= 7.14D-12 3.33D-08 XBig12= 1.59D-12 1.40D-07.
 InvSVY:  IOpt=1 It=  1 EMax= 2.80D-14
 Solved reduced A of dimension    93 with     3 vectors.
 End of Minotr F.D. properties file   721 does not exist.
 End of Minotr F.D. properties file   722 does not exist.
 End of Minotr F.D. properties file   788 does not exist.
 Leave Link 1002 at Wed Feb 22 09:42:17 2023, MaxMem= 14763950080 cpu:           19244.4 elap:            9665.4
 (Enter /software/commercial/gaussian/g16/AVX2/g16/l1101.exe)
 Using compressed storage, NAtomX=    37.
 Will process     38 centers per pass.
 Leave Link 1101 at Wed Feb 22 09:42:20 2023, MaxMem= 14763950080 cpu:               3.9 elap:               3.1
 (Enter /software/commercial/gaussian/g16/AVX2/g16/l1102.exe)
 Symmetrizing basis deriv contribution to polar:
 IMax=3 JMax=2 DiffMx= 0.00D+00
 Leave Link 1102 at Wed Feb 22 09:42:21 2023, MaxMem= 14763950080 cpu:               0.2 elap:               0.3
 (Enter /software/commercial/gaussian/g16/AVX2/g16/l1110.exe)
 Forming Gx(P) for the SCF density, NAtomX=    37.
 Integral derivatives from FoFJK, PRISM(SPDF).
 Do as many integral derivatives as possible in FoFJK.
 G2DrvN: MDV=   14763945985.
 G2DrvN: will do    38 centers at a time, making    1 passes.
 PxScal for G2LodP:  IOpCl= 1 ISclPx=1 IMOff=     1 NMtTot=     4 NTT=  441330 ScalPx= 2.15D+00
 Calling FoFCou, ICntrl=  3507 FMM=F I1Cent=   0 AccDes= 0.00D+00.
 FoFJK:  IHMeth= 1 ICntrl=    3507 DoSepK=F KAlg= 0 I1Cent=           0 FoldK=F
 IRaf=         0 NMat=       1 IRICut=       1 DoRegI=T DoRafI=F ISym2E= 0 IDoP0=0 IntGTp=1.
 FoFCou: FMM=F IPFlag=           0 FMFlag=      100000 FMFlg1=           0
         NFxFlg=           0 DoJE=F BraDBF=F KetDBF=F FulRan=T
         wScrn=  0.000000 ICntrl=      3507 IOpCl=  0 I1Cent=           0 NGrid=           0
         NMat0=    1 NMatS0=      1 NMatT0=    0 NMatD0=    4 NMtDS0=    3 NMtDT0=    0
 Symmetry not used in FoFCou.
 End of G2Drv F.D. properties file   721 does not exist.
 End of G2Drv F.D. properties file   722 does not exist.
 End of G2Drv F.D. properties file   788 does not exist.
 Leave Link 1110 at Wed Feb 22 12:25:55 2023, MaxMem= 14763950080 cpu:           19571.8 elap:            9813.2
 (Enter /software/commercial/gaussian/g16/AVX2/g16/l1002.exe)
 Minotr:  UHF open shell wavefunction.
          IDoAtm=1111111111111111111111111111111111111
          Direct CPHF calculation.
          Differentiating once with respect to electric field.
                with respect to dipole field.
          Differentiating once with respect to nuclear coordinates.
          Requested convergence is 1.0D-08 RMS, and 1.0D-07 maximum.
          Secondary convergence is 1.0D-12 RMS, and 1.0D-12 maximum.
          NewPWx=T KeepS1=F KeepF1=F KeepIn=T MapXYZ=F SortEE=F KeepMc=T.
        11391 words used for storage of precomputed grid.
 Two-electron integral symmetry not used.
          MDV=   14763950080 using IRadAn=       1.
          Solving linear equations simultaneously, MaxMat=     384.
 FoF2E skips out because all densities are zero.
 CalDSu exits because no D1Ps are significant.
 FoFJK:  IHMeth= 1 ICntrl=     500 DoSepK=F KAlg= 0 I1Cent=           0 FoldK=F
 IRaf= 750000000 NMat=     111 IRICut=       1 DoRegI=T DoRafI=F ISym2E= 0 IDoP0=3 IntGTp=3.
 FoFCou: FMM=F IPFlag=           0 FMFlag=      100000 FMFlg1=           0
         NFxFlg=           0 DoJE=F BraDBF=F KetDBF=F FulRan=T
         wScrn=  0.000000 ICntrl=       500 IOpCl=  0 I1Cent=           0 NGrid=           0
         NMat0=  111 NMatS0=    111 NMatT0=    0 NMatD0=  111 NMtDS0=    0 NMtDT0=    0
 Symmetry not used in FoFCou.
          There are   114 degrees of freedom in the 1st order CPHF.  IDoFFX=5 NUNeed=   114.
 Will reuse    3 saved solutions.
    108 vectors produced by pass  0 Test12= 2.14D-13 1.00D-09 XBig12= 9.39D-01 4.24D-01.
 AX will form   108 AO Fock derivatives at one time.
    108 vectors produced by pass  1 Test12= 2.14D-13 1.00D-09 XBig12= 2.41D-01 7.43D-02.
    108 vectors produced by pass  2 Test12= 2.14D-13 1.00D-09 XBig12= 2.41D-03 5.93D-03.
    108 vectors produced by pass  3 Test12= 2.14D-13 1.00D-09 XBig12= 6.48D-05 9.45D-04.
    108 vectors produced by pass  4 Test12= 2.14D-13 1.00D-09 XBig12= 1.43D-06 1.02D-04.
    108 vectors produced by pass  5 Test12= 2.14D-13 1.00D-09 XBig12= 2.46D-08 1.04D-05.
    108 vectors produced by pass  6 Test12= 2.14D-13 1.00D-09 XBig12= 2.46D-10 8.07D-07.
     95 vectors produced by pass  7 Test12= 2.14D-13 1.00D-09 XBig12= 2.06D-12 6.59D-08.
     21 vectors produced by pass  8 Test12= 2.14D-13 1.00D-09 XBig12= 1.37D-14 3.88D-09.
 InvSVY:  IOpt=1 It=  1 EMax= 1.22D-15
 Solved reduced A of dimension   872 with   114 vectors.
 FullF1:  Do perturbations      1 to       3.
 Isotropic polarizability for W=    0.000000      261.21 Bohr**3.
 FullF1:  Do perturbations      1 to       6.
 End of Minotr F.D. properties file   721 does not exist.
 End of Minotr F.D. properties file   722 does not exist.
 End of Minotr F.D. properties file   788 does not exist.
 Leave Link 1002 at Wed Feb 22 18:35:04 2023, MaxMem= 14763950080 cpu:           44064.0 elap:           22149.1
 (Enter /software/commercial/gaussian/g16/AVX2/g16/l601.exe)
 Copying SCF densities to generalized density rwf, IOpCl= 1 IROHF=0.

 **********************************************************************

            Population analysis using the SCF Density.

 **********************************************************************

 Alpha  occ. eigenvalues -- -255.64483-255.64419-255.62408 -30.09537 -30.09474
 Alpha  occ. eigenvalues --  -30.07145 -25.86657 -25.86613 -25.86569 -25.86496
 Alpha  occ. eigenvalues --  -25.86427 -25.86354 -25.84592 -25.84260 -25.83772
 Alpha  occ. eigenvalues --  -19.02220 -19.01732 -18.98751 -18.98615 -18.98463
 Alpha  occ. eigenvalues --  -18.98452 -18.98327 -18.98239 -18.98095 -18.98084
 Alpha  occ. eigenvalues --  -18.98046 -18.97630 -18.97560 -18.97554 -18.97441
 Alpha  occ. eigenvalues --  -18.95979 -14.28091 -14.23194 -10.18597 -10.18501
 Alpha  occ. eigenvalues --  -10.17898 -10.17673 -10.17635 -10.17626  -3.66379
 Alpha  occ. eigenvalues --   -3.66328  -3.63861  -2.40546  -2.40539  -2.40361
 Alpha  occ. eigenvalues --   -2.40295  -2.40111  -2.40031  -2.38634  -2.37941
 Alpha  occ. eigenvalues --   -2.36966  -1.07417  -1.06924  -1.06613  -1.06479
 Alpha  occ. eigenvalues --   -1.06215  -1.06161  -1.04561  -1.04370  -1.03936
 Alpha  occ. eigenvalues --   -0.99533  -0.99143  -0.98874  -0.98646  -0.98532
 Alpha  occ. eigenvalues --   -0.98460  -0.92623  -0.89067  -0.59841  -0.58838
 Alpha  occ. eigenvalues --   -0.58653  -0.58341  -0.58139  -0.58030  -0.54637
 Alpha  occ. eigenvalues --   -0.54061  -0.53537  -0.49800  -0.49556  -0.49275
 Alpha  occ. eigenvalues --   -0.48457  -0.48178  -0.47957  -0.47695  -0.47484
 Alpha  occ. eigenvalues --   -0.47219  -0.46849  -0.46723  -0.46289  -0.45551
 Alpha  occ. eigenvalues --   -0.44579  -0.43857  -0.43117  -0.42988  -0.42572
 Alpha  occ. eigenvalues --   -0.42527  -0.41471  -0.41170  -0.40940  -0.40798
 Alpha  occ. eigenvalues --   -0.40321  -0.39859  -0.39539  -0.39406  -0.38738
 Alpha  occ. eigenvalues --   -0.38608  -0.38258  -0.38140  -0.37979  -0.37708
 Alpha  occ. eigenvalues --   -0.37309  -0.37122  -0.36694  -0.35875  -0.34497
 Alpha  occ. eigenvalues --   -0.33613  -0.33411  -0.32704  -0.32060  -0.30232
 Alpha  occ. eigenvalues --   -0.29877  -0.29852  -0.29336  -0.29303  -0.29020
 Alpha  occ. eigenvalues --   -0.28977  -0.28817  -0.28460  -0.28123  -0.28039
 Alpha  occ. eigenvalues --   -0.27250  -0.27132  -0.25453  -0.25436  -0.25096
 Alpha  occ. eigenvalues --   -0.25008  -0.23272  -0.23199  -0.22513  -0.21494
 Alpha virt. eigenvalues --   -0.13521  -0.04202  -0.03524  -0.03373  -0.03118
 Alpha virt. eigenvalues --   -0.02842  -0.02406  -0.02035   0.01462   0.02449
 Alpha virt. eigenvalues --    0.05500   0.06480   0.07203   0.07480   0.07863
 Alpha virt. eigenvalues --    0.08507   0.08947   0.09021   0.09285   0.09576
 Alpha virt. eigenvalues --    0.10549   0.11073   0.11340   0.14416   0.14864
 Alpha virt. eigenvalues --    0.15016   0.16264   0.16831   0.17216   0.17629
 Alpha virt. eigenvalues --    0.18548   0.19160   0.21197   0.21580   0.22157
 Alpha virt. eigenvalues --    0.22570   0.22638   0.23047   0.23314   0.24116
 Alpha virt. eigenvalues --    0.24818   0.24896   0.25180   0.26027   0.26632
 Alpha virt. eigenvalues --    0.27324   0.27921   0.28247   0.28730   0.29011
 Alpha virt. eigenvalues --    0.29838   0.29983   0.30259   0.30683   0.30865
 Alpha virt. eigenvalues --    0.31174   0.31228   0.31490   0.32641   0.33073
 Alpha virt. eigenvalues --    0.33436   0.33810   0.34014   0.34603   0.35410
 Alpha virt. eigenvalues --    0.35720   0.36155   0.36867   0.37142   0.37706
 Alpha virt. eigenvalues --    0.38157   0.38488   0.39014   0.39228   0.39501
 Alpha virt. eigenvalues --    0.40004   0.40033   0.40193   0.40461   0.40990
 Alpha virt. eigenvalues --    0.41197   0.41484   0.41929   0.42161   0.42760
 Alpha virt. eigenvalues --    0.43149   0.43775   0.44164   0.44666   0.45054
 Alpha virt. eigenvalues --    0.45441   0.46155   0.47975   0.48664   0.49162
 Alpha virt. eigenvalues --    0.49644   0.50278   0.50986   0.51404   0.51884
 Alpha virt. eigenvalues --    0.52330   0.52909   0.53436   0.53622   0.54155
 Alpha virt. eigenvalues --    0.54561   0.54923   0.55725   0.55986   0.56377
 Alpha virt. eigenvalues --    0.57788   0.58386   0.58480   0.58680   0.59693
 Alpha virt. eigenvalues --    0.61045   0.61422   0.61880   0.62270   0.63384
 Alpha virt. eigenvalues --    0.64137   0.64582   0.64773   0.65574   0.66461
 Alpha virt. eigenvalues --    0.67244   0.67895   0.68529   0.68900   0.69271
 Alpha virt. eigenvalues --    0.69686   0.70070   0.70588   0.70811   0.71132
 Alpha virt. eigenvalues --    0.71588   0.72267   0.72903   0.73514   0.73774
 Alpha virt. eigenvalues --    0.74250   0.74470   0.74890   0.75205   0.76344
 Alpha virt. eigenvalues --    0.76546   0.77371   0.77878   0.78137   0.79037
 Alpha virt. eigenvalues --    0.79612   0.80637   0.81876   0.82435   0.82894
 Alpha virt. eigenvalues --    0.83789   0.84268   0.85648   0.86791   0.87658
 Alpha virt. eigenvalues --    0.88312   0.89115   0.89842   0.90464   0.91378
 Alpha virt. eigenvalues --    0.91962   0.92512   0.93103   0.93333   0.93736
 Alpha virt. eigenvalues --    0.94764   0.95464   0.96196   0.96443   0.97041
 Alpha virt. eigenvalues --    0.97539   0.98321   0.99009   0.99833   1.00995
 Alpha virt. eigenvalues --    1.01454   1.02140   1.02826   1.03030   1.03233
 Alpha virt. eigenvalues --    1.03583   1.04612   1.05689   1.06206   1.06305
 Alpha virt. eigenvalues --    1.06610   1.07292   1.08486   1.08939   1.09373
 Alpha virt. eigenvalues --    1.10261   1.10657   1.12556   1.13864   1.15999
 Alpha virt. eigenvalues --    1.17501   1.18772   1.20222   1.20515   1.21928
 Alpha virt. eigenvalues --    1.22657   1.23536   1.24106   1.25227   1.25572
 Alpha virt. eigenvalues --    1.26539   1.26772   1.27494   1.28139   1.28775
 Alpha virt. eigenvalues --    1.29718   1.31203   1.32456   1.34881   1.36035
 Alpha virt. eigenvalues --    1.36749   1.36988   1.38829   1.39992   1.40231
 Alpha virt. eigenvalues --    1.41187   1.42012   1.43077   1.44090   1.44579
 Alpha virt. eigenvalues --    1.45314   1.45905   1.46353   1.47209   1.47886
 Alpha virt. eigenvalues --    1.48896   1.49781   1.50618   1.51292   1.52479
 Alpha virt. eigenvalues --    1.53087   1.53749   1.54797   1.54878   1.55347
 Alpha virt. eigenvalues --    1.56008   1.57265   1.58687   1.59438   1.59640
 Alpha virt. eigenvalues --    1.60650   1.61182   1.62176   1.62704   1.63150
 Alpha virt. eigenvalues --    1.64048   1.65216   1.65658   1.65981   1.68016
 Alpha virt. eigenvalues --    1.68751   1.69092   1.69395   1.70756   1.71316
 Alpha virt. eigenvalues --    1.72305   1.72709   1.73620   1.74544   1.75190
 Alpha virt. eigenvalues --    1.76091   1.77286   1.77782   1.78628   1.80398
 Alpha virt. eigenvalues --    1.80610   1.81565   1.83297   1.83766   1.86866
 Alpha virt. eigenvalues --    1.87313   1.87823   1.87870   1.88545   1.88899
 Alpha virt. eigenvalues --    1.89522   1.90233   1.91230   1.91633   1.92788
 Alpha virt. eigenvalues --    1.93166   1.93791   1.94619   1.95088   1.96374
 Alpha virt. eigenvalues --    1.96913   1.98011   1.98075   1.98511   1.99808
 Alpha virt. eigenvalues --    2.00168   2.01303   2.01933   2.02836   2.03167
 Alpha virt. eigenvalues --    2.04233   2.04785   2.05329   2.06437   2.07271
 Alpha virt. eigenvalues --    2.08396   2.09133   2.09367   2.10076   2.10689
 Alpha virt. eigenvalues --    2.10966   2.11447   2.12015   2.12253   2.13105
 Alpha virt. eigenvalues --    2.13573   2.13995   2.15020   2.15448   2.16019
 Alpha virt. eigenvalues --    2.16861   2.17013   2.17837   2.17966   2.19212
 Alpha virt. eigenvalues --    2.19524   2.20539   2.21428   2.22014   2.23016
 Alpha virt. eigenvalues --    2.23217   2.23806   2.24413   2.25255   2.25715
 Alpha virt. eigenvalues --    2.26935   2.27567   2.28992   2.29701   2.31039
 Alpha virt. eigenvalues --    2.31836   2.32706   2.34361   2.34441   2.36097
 Alpha virt. eigenvalues --    2.38404   2.39932   2.41276   2.41721   2.43997
 Alpha virt. eigenvalues --    2.44861   2.46123   2.46521   2.47356   2.48129
 Alpha virt. eigenvalues --    2.48990   2.50242   2.50891   2.52789   2.54273
 Alpha virt. eigenvalues --    2.55011   2.56048   2.56736   2.57584   2.58530
 Alpha virt. eigenvalues --    2.59125   2.63541   2.64287   2.64636   2.65343
 Alpha virt. eigenvalues --    2.66361   2.67520   2.67608   2.68329   2.68907
 Alpha virt. eigenvalues --    2.69383   2.71147   2.71900   2.72082   2.73131
 Alpha virt. eigenvalues --    2.73831   2.74659   2.75871   2.77609   2.78601
 Alpha virt. eigenvalues --    2.82074   2.82476   2.82854   2.83343   2.85125
 Alpha virt. eigenvalues --    2.85199   2.88015   2.89572   2.91477   2.92542
 Alpha virt. eigenvalues --    2.95153   2.95430   2.96233   2.96888   2.97661
 Alpha virt. eigenvalues --    2.97816   2.98878   2.99532   3.00074   3.00800
 Alpha virt. eigenvalues --    3.01807   3.03011   3.03272   3.03874   3.04349
 Alpha virt. eigenvalues --    3.05259   3.06327   3.06474   3.07092   3.07592
 Alpha virt. eigenvalues --    3.08423   3.09387   3.10211   3.10547   3.12096
 Alpha virt. eigenvalues --    3.12541   3.13329   3.14160   3.14375   3.14779
 Alpha virt. eigenvalues --    3.15536   3.16006   3.16383   3.16801   3.16944
 Alpha virt. eigenvalues --    3.17625   3.18101   3.19851   3.20701   3.21517
 Alpha virt. eigenvalues --    3.21723   3.22619   3.22871   3.24635   3.24929
 Alpha virt. eigenvalues --    3.25681   3.27034   3.28651   3.29158   3.30371
 Alpha virt. eigenvalues --    3.31193   3.31392   3.32160   3.33475   3.34752
 Alpha virt. eigenvalues --    3.38060   3.38571   3.39487   3.40520   3.42768
 Alpha virt. eigenvalues --    3.43600   3.44679   3.45221   3.45713   3.46113
 Alpha virt. eigenvalues --    3.46266   3.47159   3.47198   3.48541   3.48780
 Alpha virt. eigenvalues --    3.49399   3.50061   3.50479   3.50717   3.50969
 Alpha virt. eigenvalues --    3.51586   3.52811   3.53979   3.54639   3.56219
 Alpha virt. eigenvalues --    3.58524   3.60053   3.60969   3.61504   3.61824
 Alpha virt. eigenvalues --    3.62099   3.62790   3.63130   3.64685   3.64966
 Alpha virt. eigenvalues --    3.65433   3.66087   3.68856   3.69502   3.70224
 Alpha virt. eigenvalues --    3.70556   3.72104   3.73692   3.73803   3.75175
 Alpha virt. eigenvalues --    3.77302   3.78777   3.79727   3.80241   3.81112
 Alpha virt. eigenvalues --    3.81389   3.82004   3.82234   3.82797   3.83678
 Alpha virt. eigenvalues --    3.84519   3.85460   3.87485   3.88565   3.89925
 Alpha virt. eigenvalues --    3.91130   3.91530   3.92070   3.93051   3.93186
 Alpha virt. eigenvalues --    3.93895   3.94518   3.94717   3.95095   3.95930
 Alpha virt. eigenvalues --    3.97087   3.97432   4.00441   4.00575   4.02168
 Alpha virt. eigenvalues --    4.03219   4.04291   4.06116   4.07192   4.07587
 Alpha virt. eigenvalues --    4.09704   4.12357   4.14522   4.15890   4.16716
 Alpha virt. eigenvalues --    4.17075   4.18568   4.19370   4.20548   4.21458
 Alpha virt. eigenvalues --    4.22576   4.23365   4.23824   4.24838   4.26125
 Alpha virt. eigenvalues --    4.26995   4.27345   4.28342   4.30345   4.31512
 Alpha virt. eigenvalues --    4.41193   4.46053   4.47796   4.48016   4.48634
 Alpha virt. eigenvalues --    4.49043   4.49763   4.51117   4.52230   4.54269
 Alpha virt. eigenvalues --    4.56082   4.56774   4.58996   4.59803   4.64266
 Alpha virt. eigenvalues --    4.66495   4.69151   4.71180   4.80483   4.90671
 Alpha virt. eigenvalues --    4.97543   5.07989   5.12516   5.17633   5.18147
 Alpha virt. eigenvalues --    5.18947   5.23423   5.23854   5.23919   5.24133
 Alpha virt. eigenvalues --    5.24680   5.24834   5.25137   5.25234   5.25597
 Alpha virt. eigenvalues --    5.25885   5.25972   5.26198   5.26626   5.27071
 Alpha virt. eigenvalues --    5.27196   5.27262   5.28351   5.28796   5.29277
 Alpha virt. eigenvalues --    5.29762   5.29991   5.31086   5.31139   5.31367
 Alpha virt. eigenvalues --    5.32098   5.32831   5.32982   5.33516   5.33905
 Alpha virt. eigenvalues --    5.34188   5.35302   5.35813   5.36268   5.38283
 Alpha virt. eigenvalues --    5.39870   5.40997   5.42484   5.43742   5.44134
 Alpha virt. eigenvalues --    5.45680   5.47701   5.48348   5.49155   5.49380
 Alpha virt. eigenvalues --    5.50809   5.51948   5.53420   5.54420   5.55029
 Alpha virt. eigenvalues --    5.58676   5.58974   5.59448   5.59735   5.60285
 Alpha virt. eigenvalues --    5.61173   5.61659   5.62130   5.63437   5.63547
 Alpha virt. eigenvalues --    5.64886   5.66760   5.68941   5.69377   5.69576
 Alpha virt. eigenvalues --    5.69958   5.70337   5.70666   5.70777   5.76068
 Alpha virt. eigenvalues --    5.88084   5.89795   5.90243   5.93930   5.94039
 Alpha virt. eigenvalues --    5.94718   6.06255   6.07004   6.08095   6.09806
 Alpha virt. eigenvalues --    6.10323   6.10432   6.10650   6.11650   6.12930
 Alpha virt. eigenvalues --    6.16440   6.16799   6.17171   6.17540   6.18245
 Alpha virt. eigenvalues --    6.19005   6.19898   6.20274   6.21318   6.22740
 Alpha virt. eigenvalues --    6.23441   6.27482   6.30287   6.33945   6.36292
 Alpha virt. eigenvalues --    6.37505   6.42203   6.42413   6.43190   6.44425
 Alpha virt. eigenvalues --    6.46464   6.47059   6.48294   6.48878   6.49438
 Alpha virt. eigenvalues --    6.49486   6.49871   6.50079   6.51333   6.51987
 Alpha virt. eigenvalues --    6.53201   6.53845   6.54819   6.55296   6.55516
 Alpha virt. eigenvalues --    6.56639   6.57263   6.57637   6.58753   6.59819
 Alpha virt. eigenvalues --    6.60931   6.61541   6.63320   6.63797   6.64249
 Alpha virt. eigenvalues --    6.64455   6.65054   6.66333   6.67121   6.67861
 Alpha virt. eigenvalues --    6.68387   6.70549   6.71130   6.71520   6.72346
 Alpha virt. eigenvalues --    6.73347   6.75126   6.76331   6.77887   6.81292
 Alpha virt. eigenvalues --    6.84492   6.84814   6.85847   6.86343   6.88072
 Alpha virt. eigenvalues --    6.89686   6.89911   6.90092   6.91118   6.91392
 Alpha virt. eigenvalues --    6.92419   6.94366   6.94769   6.98019   6.98162
 Alpha virt. eigenvalues --    6.98348   6.98826   6.99851   7.03686   7.05143
 Alpha virt. eigenvalues --    7.05981   7.06868   7.07232   7.09158   7.09915
 Alpha virt. eigenvalues --    7.10597   7.10806   7.12444   7.13202   7.14109
 Alpha virt. eigenvalues --    7.14507   7.23369   7.24173   7.25145   7.26061
 Alpha virt. eigenvalues --    7.26881   7.27228   7.27526   7.27990   7.29170
 Alpha virt. eigenvalues --    7.29387   7.30204   7.30809   7.33707   7.34303
 Alpha virt. eigenvalues --    7.35838   7.37702   7.40207   7.44635   7.56409
 Alpha virt. eigenvalues --   23.21924  23.22595  23.23366  23.23642  23.24249
 Alpha virt. eigenvalues --   23.27181  31.61446  32.30234  43.68500  43.70353
 Alpha virt. eigenvalues --   43.83964  43.84997  43.94792  43.96398  43.98194
 Alpha virt. eigenvalues --   44.10268  44.12901  44.16008  44.17374  44.18787
 Alpha virt. eigenvalues --   44.20613  44.22912  44.31559  44.33030
  Beta  occ. eigenvalues -- -255.64308-255.64244-255.62237 -29.97806 -29.97741
  Beta  occ. eigenvalues --  -29.95676 -25.78020 -25.77984 -25.77970 -25.77911
  Beta  occ. eigenvalues --  -25.77900 -25.77830 -25.75951 -25.75892 -25.75610
  Beta  occ. eigenvalues --  -19.02057 -19.01570 -18.98535 -18.98465 -18.98302
  Beta  occ. eigenvalues --  -18.98192 -18.98191 -18.97911 -18.97712 -18.97696
  Beta  occ. eigenvalues --  -18.97665 -18.97354 -18.97270 -18.97259 -18.97141
  Beta  occ. eigenvalues --  -18.94186 -14.28502 -14.23696 -10.18599 -10.18505
  Beta  occ. eigenvalues --  -10.17894 -10.17669 -10.17633 -10.17621  -3.41300
  Beta  occ. eigenvalues --   -3.41248  -3.39415  -2.15741  -2.15692  -2.15682
  Beta  occ. eigenvalues --   -2.15657  -2.15646  -2.15577  -2.13935  -2.13881
  Beta  occ. eigenvalues --   -2.13572  -1.06843  -1.06363  -1.05997  -1.05804
  Beta  occ. eigenvalues --   -1.05740  -1.05522  -1.05462  -1.04036  -1.03605
  Beta  occ. eigenvalues --   -0.98831  -0.98486  -0.98091  -0.97860  -0.97701
  Beta  occ. eigenvalues --   -0.97622  -0.91898  -0.87647  -0.59134  -0.58157
  Beta  occ. eigenvalues --   -0.58038  -0.57750  -0.57254  -0.57156  -0.55349
  Beta  occ. eigenvalues --   -0.54352  -0.53759  -0.48717  -0.48321  -0.47527
  Beta  occ. eigenvalues --   -0.47189  -0.46630  -0.46603  -0.46313  -0.46197
  Beta  occ. eigenvalues --   -0.45992  -0.45935  -0.45784  -0.45496  -0.44276
  Beta  occ. eigenvalues --   -0.43091  -0.41945  -0.41805  -0.41707  -0.41636
  Beta  occ. eigenvalues --   -0.41213  -0.40838  -0.40486  -0.40112  -0.39370
  Beta  occ. eigenvalues --   -0.35947  -0.34724  -0.33779  -0.33429  -0.31765
  Beta  occ. eigenvalues --   -0.31433  -0.30972  -0.29994  -0.29886  -0.29798
  Beta  occ. eigenvalues --   -0.29646  -0.29610  -0.29357  -0.29167  -0.28895
  Beta  occ. eigenvalues --   -0.28255  -0.28131  -0.27682  -0.27564  -0.27421
  Beta  occ. eigenvalues --   -0.27284  -0.27083  -0.26801  -0.25954  -0.25219
  Beta  occ. eigenvalues --   -0.20461
  Beta virt. eigenvalues --   -0.17323  -0.17147  -0.16435  -0.15998  -0.15970
  Beta virt. eigenvalues --   -0.14716  -0.14276  -0.13991  -0.12664  -0.11462
  Beta virt. eigenvalues --   -0.10793  -0.10547  -0.10111  -0.08326  -0.07151
  Beta virt. eigenvalues --   -0.04064  -0.03439  -0.03183  -0.02432  -0.02053
  Beta virt. eigenvalues --   -0.01973  -0.01630   0.01666   0.02654   0.03861
  Beta virt. eigenvalues --    0.06999   0.07401   0.07553   0.07983   0.08635
  Beta virt. eigenvalues --    0.09036   0.09175   0.09359   0.09695   0.11095
  Beta virt. eigenvalues --    0.11609   0.11727   0.14913   0.15688   0.16264
  Beta virt. eigenvalues --    0.17287   0.17423   0.17755   0.18895   0.20114
  Beta virt. eigenvalues --    0.20972   0.21504   0.22472   0.22708   0.22856
  Beta virt. eigenvalues --    0.23410   0.23835   0.24184   0.24984   0.25154
  Beta virt. eigenvalues --    0.25503   0.25954   0.26655   0.27396   0.27888
  Beta virt. eigenvalues --    0.28134   0.28324   0.29064   0.29618   0.30368
  Beta virt. eigenvalues --    0.30837   0.30963   0.31281   0.31372   0.31726
  Beta virt. eigenvalues --    0.31970   0.32335   0.33057   0.33575   0.34005
  Beta virt. eigenvalues --    0.34299   0.34730   0.35066   0.35646   0.36385
  Beta virt. eigenvalues --    0.36612   0.37556   0.37678   0.38036   0.38493
  Beta virt. eigenvalues --    0.38907   0.39325   0.39633   0.39756   0.40380
  Beta virt. eigenvalues --    0.40542   0.40915   0.40955   0.41371   0.41927
  Beta virt. eigenvalues --    0.42217   0.42587   0.42917   0.43132   0.43645
  Beta virt. eigenvalues --    0.44162   0.44617   0.45112   0.45657   0.45925
[...]
 166804,0.00057506,-0.00001551,0.00005356,0.00005313,-0.00012059,-0.000
 09460,-0.00006370,-0.00170639,0.00107119,-0.00028116,0.00031910,0.0000
 8491,-0.00005469,-0.00057147,-0.00065281,0.00006964,0.00007342,0.00012
 951,0.00005010,-0.00010624,0.00008279,-0.00021248,0.00021162,-0.000165
 31,-0.00020735,0.00008357,0.00002861,0.00042201,0.00001057,-0.00002038
 ,-0.00002349,0.00047624,0.00008895,0.00013153,-0.00014731,-0.00006854,
 -0.00008482,0.00029144,-0.00032846,0.00069953,0.00000243,-0.00008114,-
 0.00027020,-0.00021826,0.00009337,-0.00025591,0.00194398,-0.00064076,0
 .00424660,-0.00017747,0.00005513,-0.00038528,0.00010828,0.00015924,0.0
 0022450,0.00000471,-0.00001926,-0.00001532,0.00024730,0.00009284,0.000
 19041,-0.00002220,0.00001079,-0.00002184,0.00007669,0.00006149,0.00004
 423,-0.00003438,-0.00002956,-0.00006752,-0.00009905,-0.00004890,-0.000
 01116,-0.03665087,0.01709489,-0.01405277,0.04235155,-0.00000915,-0.000
 63732,-0.00010604,-0.00001669,-0.00003044,-0.00003378,0.00011340,-0.00
 000086,0.00007907,-0.00001006,0.00005439,-0.00000323,0.00019480,-0.001
 20081,0.00034556,-0.00109591,-0.00125989,0.00041702,0.00030887,0.00127
 858,-0.00032411,-0.00002000,-0.00001291,0.00005796,-0.00009922,-0.0003
 2920,-0.00008851,0.00070625,0.00253350,-0.00192712,0.00285501,0.002114
 30,-0.00326559,-0.00208361,-0.00720606,0.00099561,-0.00008544,0.000154
 61,0.00005409,0.00000877,-0.00036905,0.00042727,-0.00013479,0.00009161
 ,0.00087725,0.00006996,0.00012882,-0.00050122,0.00000222,-0.00000222,0
 .00000939,0.00000086,0.00049184,0.00002284,-0.00015377,-0.00012751,-0.
 00004330,-0.00082197,0.00159448,0.00158605,0.00010623,-0.00026188,-0.0
 0028523,-0.00020432,-0.00007484,-0.00043257,-0.00026461,0.00771035,0.0
 0030369,-0.00060477,-0.00135079,0.00023903,0.00017957,0.00022397,0.000
 23889,-0.00000421,-0.00001000,-0.00004123,0.00036542,0.00026734,0.0003
 1561,-0.00002256,-0.00000870,-0.00000095,0.00001635,0.00001422,0.00001
 805,-0.00000859,-0.00000630,-0.00001855,-0.00002133,-0.00007077,-0.000
 02675,0.05602421,-0.31717890,-0.21699134,-0.05086838,0.32905939,0.0005
 5202,0.00044152,0.00075317,-0.00012635,0.00005042,0.00060265,-0.000398
 22,0.00000694,-0.00090300,0.00008294,-0.00004024,0.00006496,-0.0002960
 0,-0.00039426,0.00020233,-0.00121458,-0.00003043,0.00051147,0.00091787
 ,0.00069813,0.00001624,-0.00011643,-0.00004785,-0.00011407,0.00007967,
 0.00011024,0.00013286,-0.00028503,-0.00441651,-0.00015124,-0.00133857,
 -0.00139320,0.00163573,0.00087852,0.00320948,-0.00020770,-0.00004716,-
 0.00041080,-0.00013021,-0.00003080,0.00031700,-0.00037971,0.00041430,-
 0.00016127,-0.00116841,0.00002124,-0.00003540,0.00032861,-0.00001208,-
 0.00001438,-0.00002955,0.00005016,-0.00041055,-0.00041656,0.00007015,0
 .00008630,0.00008880,0.00069574,0.00000614,-0.00104193,-0.00013957,0.0
 0014407,0.00033721,0.00019008,-0.00012545,0.00038312,0.00201377,-0.004
 55356,-0.01013135,-0.00014518,-0.00002175,0.00049901,-0.00007138,-0.00
 019231,-0.00027604,-0.00001519,0.00002211,0.00003974,-0.00029919,-0.00
 005651,-0.00027385,0.00003756,-0.00001592,0.00001505,-0.00011297,-0.00
 009772,-0.00010821,0.00005983,0.00005359,0.00013249,0.00008782,0.00011
 444,0.00007764,0.02094096,-0.23967970,-0.20082464,-0.01598587,0.234185
 18,0.20436276,-0.00004705,-0.00003461,0.00012828,-0.00014759,-0.000033
 88,0.00013579,0.00008320,0.00008126,-0.00016461,-0.00001782,-0.0000002
 6,-0.00000640,0.00041175,0.00307385,-0.00153575,0.00063339,0.00190985,
 -0.00075768,-0.00393883,-0.00338074,0.00042313,0.00008037,-0.00006552,
 -0.00003633,-0.00006659,-0.00009702,-0.00001782,-0.00060790,-0.0016914
 9,0.00053870,-0.00072945,-0.00025669,0.00057467,0.00055502,0.00067367,
 -0.00040400,0.00001945,-0.00005111,0.00002500,0.00000505,-0.00002952,0
 .00018451,-0.00066098,0.00004119,0.00015688,0.00001997,-0.00004490,-0.
 00010973,0.00002071,0.00003622,0.00003478,0.00022823,0.00009634,-0.000
 08537,-0.00025737,-0.00010007,-0.00004567,0.00139483,-0.00031680,0.000
 77193,-0.00011989,-0.00007307,-0.00030511,-0.00020151,0.00002889,-0.00
 014139,0.00453311,0.00075785,-0.00189713,-0.00086223,-0.00069986,0.000
 34671,0.00021352,0.00020248,0.00025164,-0.00000661,-0.00001599,-0.0000
 0007,0.00014852,0.00012100,0.00009600,-0.00001292,-0.00000287,-0.00001
 879,-0.00000178,-0.00000474,-0.00000478,0.00000364,0.00000276,0.000009
 38,-0.00002744,-0.00001291,-0.00000924,-0.37253915,0.20491628,-0.09842
 229,-0.00472654,-0.00444734,-0.00639926,0.37672935,-0.00056265,0.00003
 826,-0.00054489,0.00007019,-0.00013328,-0.00033814,0.00013668,0.000138
 66,0.00057321,-0.00004731,0.00000353,-0.00004338,0.00019601,0.00202390
 ,-0.00082794,0.00313735,0.00071645,-0.00188282,-0.00210776,-0.00262332
 ,0.00025105,0.00017925,0.00012918,0.00011703,-0.00010158,-0.00017754,-
 0.00012839,-0.00071846,-0.00053262,-0.00019714,0.00006223,0.00009896,-
 0.00021114,-0.00031156,-0.00070548,0.00034273,0.00004344,0.00000728,0.
 00004547,-0.00000134,-0.00062548,0.00076597,0.00002340,-0.00121782,0.0
 0057812,0.00014920,0.00010149,-0.00097898,0.00006340,-0.00008827,-0.00
 011242,0.00007202,0.00068627,0.00029160,-0.00019339,-0.00017028,-0.000
 13275,0.00025849,-0.00056557,0.00097875,0.00007187,-0.00016522,-0.0004
 6896,-0.00025641,0.00011202,-0.00034933,0.00266968,-0.00122124,0.00677
 779,-0.00004718,0.00007061,-0.00067991,0.00016202,0.00029885,0.0003946
 0,0.00001610,-0.00002669,-0.00003491,0.00030882,0.00013505,0.00026183,
 -0.00003768,0.00000464,-0.00002008,0.00013328,0.00010604,0.00005680,-0
 .00005770,-0.00004951,-0.00010513,-0.00010712,-0.00013739,-0.00000511,
 0.16309597,-0.11792086,0.02140163,0.03420997,-0.01560253,0.01270458,-0
 .20048662,0.13731135,-0.00040664,0.00021240,-0.00141108,0.00042217,-0.
 00012256,-0.00062166,-0.00009489,0.00019741,0.00073630,-0.00000590,-0.
 00001043,-0.00003404,-0.00054533,-0.00213885,0.00101466,-0.00270188,-0
 .00171839,-0.00019469,0.00247332,0.00204035,-0.00000926,-0.00033264,-0
 .00009001,-0.00007367,0.00007474,-0.00005449,0.00001885,0.00034188,0.0
 0016468,-0.00000197,0.00026262,-0.00013109,-0.00029140,-0.00012306,0.0
 0008733,0.00030686,-0.00001315,-0.00004378,-0.00006018,-0.00006750,-0.
 00081509,0.00170720,0.00020180,0.00058074,0.00249021,0.00069289,-0.000
 62582,-0.00251634,-0.00007980,0.00008607,0.00006338,-0.00059166,0.0006
 0081,-0.00032788,-0.00000890,-0.00006113,0.00008737,-0.00044673,0.0007
 4695,-0.00049206,-0.00005199,-0.00004209,0.00019334,0.00017121,-0.0001
 1345,0.00018046,-0.00717677,0.00632708,-0.00422778,0.00020943,-0.00018
 427,0.00011411,0.00006643,-0.00003879,-0.00014019,-0.00002099,0.000024
 18,0.00001090,-0.00013997,0.00000949,-0.00011254,0.00001740,-0.0000195
 9,0.00002498,-0.00007392,-0.00007284,-0.00014581,0.00005068,0.00004948
 ,0.00013746,0.00011441,0.00001623,0.00013819,-0.12570306,0.04961467,-0
 .06678981,0.02677305,-0.01602455,0.00592383,0.10668937,-0.03846650,0.0
 6428506,-0.00070537,-0.00021344,-0.00017706,-0.00021823,-0.00015244,-0
 .00028865,0.00052463,0.00006665,0.00041835,-0.00009078,0.00003240,-0.0
 0003097,0.00251617,-0.00249588,0.00202874,0.00097532,0.00048923,0.0002
 5650,0.00023947,-0.00091385,0.00043537,0.00013794,-0.00032533,0.000245
 12,-0.00052993,-0.00086409,-0.00060688,-0.00031672,-0.00137463,0.00071
 773,-0.00543227,-0.00095440,0.00508378,0.00074227,0.00163485,-0.001811
 78,-0.00017595,-0.00002688,0.00040051,0.00007804,-0.00033160,-0.000279
 68,0.00011259,-0.00076513,-0.00021059,-0.00016544,0.00047317,0.0004168
 5,0.00004309,-0.00010034,-0.00003304,-0.00013179,0.00085106,0.00167923
 ,0.00104125,0.00052902,0.00027447,-0.01223967,-0.00891786,-0.00080632,
 0.00287225,-0.00156103,-0.00159358,-0.00472758,0.00042249,-0.00510725,
 0.00053435,0.00231909,-0.00255375,-0.00261593,-0.00433403,0.00114429,0
 .00041737,-0.00058517,-0.00085793,0.00000970,-0.00010452,-0.00035811,0
 .00139403,0.00070787,0.00125481,-0.00034036,0.00005457,-0.00021095,0.0
 0040014,0.00035305,0.00032708,-0.00021897,-0.00018334,-0.00046667,-0.0
 0026821,-0.00033299,-0.00018119,-0.00007904,-0.00038079,0.00045912,0.0
 0004636,0.00012266,-0.00017641,-0.00006750,0.00008620,-0.00007236,0.36
 780701,-0.00094664,-0.00004660,-0.00024961,-0.00030818,-0.00004171,-0.
 00021187,0.00056260,0.00002221,0.00050298,-0.00012574,0.00000620,-0.00
 004440,0.00023744,-0.01373994,0.01078197,-0.00201478,-0.00263302,0.001
 03189,-0.00040830,0.00363862,-0.00208380,0.00033264,-0.00061117,0.0003
 0523,0.00003037,0.00097934,-0.00004713,-0.00017419,0.00141331,0.000390
 18,-0.00077572,0.00153865,0.00160133,-0.00021326,-0.00090325,0.0001385
 0,-0.00016136,0.00003152,0.00031287,-0.00011939,-0.00037582,-0.0003014
 6,-0.00014543,-0.00083460,-0.00020946,-0.00012917,0.00059819,0.0004242
 8,0.00008152,-0.00009396,-0.00002193,0.00159935,0.00015496,0.00138041,
 -0.00213772,-0.00125722,-0.00156301,-0.00287039,-0.01408503,-0.0014448
 6,0.00018807,-0.00882739,-0.01217935,-0.00078390,0.00172394,-0.0014851
 8,0.00253472,0.00104065,-0.00250050,-0.00247605,-0.00322618,0.00108389
 ,0.00097371,0.00133839,0.00367898,0.00017967,-0.00031552,-0.00070421,-
 0.00001784,-0.00038334,-0.00012370,-0.00026417,0.00006978,-0.00018521,
 0.00045137,0.00036649,0.00049959,-0.00022228,-0.00021099,-0.00053111,-
 0.00047879,-0.00028245,-0.00030784,-0.00034842,-0.00025134,0.00053074,
 0.00012177,-0.00004387,-0.00016327,0.00015682,0.00017518,-0.00021838,-
 0.16059532,0.14784679,0.00043516,0.00004447,0.00073903,-0.00052866,-0.
 00007038,0.00075011,0.00005256,-0.00001306,-0.00115020,-0.00001699,0.0
 0000480,0.00007285,0.00024668,0.00949810,-0.00265953,0.00246546,0.0021
 8398,-0.00055506,-0.00027452,-0.00327537,0.00262614,-0.00005342,0.0001
 1678,-0.00028199,-0.00077202,-0.00115802,-0.00044614,0.00047865,0.0020
 5019,-0.00011767,0.00477315,0.00184948,-0.00173988,-0.00092683,-0.0016
 4715,0.00185384,-0.00014087,0.00002032,-0.00013152,-0.00003820,-0.0006
 9139,0.00076024,-0.00007004,0.00038434,0.00091906,0.00015105,0.0002051
 6,-0.00131853,-0.00000016,-0.00003162,0.00006748,0.00146336,0.00107674
 ,-0.00091908,-0.00321401,-0.00150046,-0.00164568,0.00001766,-0.0018368
 5,-0.01186803,-0.00078658,-0.01097876,-0.00731299,-0.00499750,-0.00062
 256,-0.00240302,-0.00105075,-0.00051487,-0.00251041,-0.00062508,-0.000
 97824,0.00083447,0.00149722,0.00182947,0.00508185,0.00005263,0.0000720
 0,-0.00038900,0.00118262,0.00044712,0.00133001,-0.00003653,0.00005576,
 -0.00021029,0.00000053,-0.00003732,0.00013470,0.00001608,0.00001656,0.
 00002099,-0.00018183,-0.00017240,-0.00017308,0.00019253,0.00018478,0.0
 0005955,-0.00008810,-0.00012236,0.00007297,-0.00012334,-0.00012711,0.0
 0005002,-0.03008332,-0.01918459,0.65645200,0.00030560,0.00007087,0.000
 29052,-0.00007182,0.00000247,0.00023103,-0.00011628,-0.00001310,-0.000
 42533,0.00002404,-0.00000524,0.00002530,-0.00138510,0.00262560,-0.0008
 3694,0.00073817,0.00075583,-0.00030790,-0.00019207,-0.00111511,0.00098
 350,-0.00007016,0.00020818,-0.00027073,-0.00017801,-0.00040598,-0.0000
 9974,0.00032933,0.00143164,-0.00028257,0.00192066,0.00078573,-0.000482
 31,-0.00118696,-0.00150558,0.00169571,-0.00003131,0.00000570,-0.000102
 99,0.00000377,-0.00003215,0.00019194,-0.00002351,0.00030959,0.00026796
 ,0.00007667,-0.00010473,-0.00037397,-0.00001784,0.00002540,0.00002418,
 -0.00010812,0.00008620,-0.00038440,0.00003391,-0.00001771,0.00014885,-
 0.00484395,-0.00166516,-0.00744256,-0.00009140,0.00043562,0.00037595,-
 0.00102488,-0.00037634,-0.00046724,-0.00047043,-0.00076170,-0.00049306
 ,0.00014170,0.00019211,0.00026227,0.00001449,-0.00011278,-0.00024786,-
 0.00002452,0.00006690,0.00004797,0.00021412,0.00015810,0.00022905,-0.0
 0000842,0.00000917,-0.00003623,-0.00009612,-0.00008606,-0.00009715,0.0
 0005098,0.00004974,0.00012183,0.00007562,0.00004178,0.00005003,0.00008
 874,0.00017591,-0.00010282,-0.00004830,-0.00010861,0.00009285,-0.00002
 896,-0.00007882,0.00005792,-0.13425939,0.07440866,-0.19130625,0.129564
 93,0.00047553,-0.00003259,0.00027382,-0.00001952,-0.00000350,0.0002147
 5,-0.00015413,-0.00000383,-0.00043675,0.00004313,0.00000603,0.00003955
 ,0.00026008,0.00447888,-0.00197552,0.00372253,0.00339802,-0.00108504,-
 0.00052960,-0.00630625,0.00410467,-0.00019638,0.00027113,-0.00023027,-
 0.00002548,-0.00030642,0.00004067,0.00022849,-0.00093563,0.00004710,0.
 00021886,-0.00084066,0.00003753,0.00007272,0.00096618,-0.00015172,-0.0
 0000478,-0.00003449,-0.00013519,0.00004240,-0.00016582,0.00032936,0.00
 011392,0.00035340,0.00049409,0.00008347,-0.00010861,-0.00064282,-0.000
 02823,0.00001210,0.00002426,-0.00013916,0.00017137,-0.00045959,-0.0001
 1321,0.00005820,-0.00000961,-0.00575576,0.00268310,-0.00659274,0.00027
 287,-0.00187014,0.00020521,-0.00030540,-0.00036503,0.00003288,-0.00207
 430,0.00025534,-0.00077974,0.00019602,-0.00048961,0.00057632,0.0001030
 7,-0.00030692,-0.00001161,-0.00004322,0.00011012,-0.00001940,-0.000003
 55,0.00023640,0.00002691,0.00003910,-0.00001635,0.00000725,-0.00012306
 ,-0.00010901,-0.00013134,0.00006892,0.00006512,0.00016478,0.00009632,0
 .00003887,0.00008112,0.00036050,0.00008767,-0.00017821,-0.00011313,0.0
 0004515,0.00008283,-0.00022092,-0.00016963,0.00017303,0.07543733,-0.05
 627032,0.13406195,-0.06815902,0.05174700,-0.00004752,0.00001919,-0.000
 22286,0.00017392,0.00003406,-0.00019622,-0.00007204,-0.00000516,0.0002
 9902,0.00001388,-0.00000640,-0.00001709,0.00011421,-0.00040975,-0.0021
 6569,-0.00125937,-0.00065785,0.00031184,0.00051327,0.00232717,-0.00178
 193,-0.00002592,0.00008673,-0.00003827,0.00018792,0.00022407,0.0000834
 1,-0.00008955,-0.00035903,-0.00020409,-0.00031270,-0.00038166,-0.00088
 421,0.00039492,0.00032763,-0.00016167,0.00009856,-0.00002001,-0.000091
 53,0.00001565,0.00024148,-0.00021523,0.00000656,-0.00004672,-0.0002930
 9,-0.00003894,-0.00010469,0.00039288,-0.00000483,0.00001644,-0.0000149
 8,-0.00042588,-0.00034043,0.00011029,0.00080097,0.00050176,0.00031088,
 -0.00544494,-0.00436511,0.00143845,0.00046594,0.00056706,0.00088614,0.
 00056353,0.00000792,0.00029276,0.00033846,-0.00018587,0.00138276,0.000
 67857,0.00115593,-0.00077133,-0.00043341,-0.00077403,-0.00079976,-0.00
 001869,0.00002397,0.00006125,-0.00032837,-0.00010907,-0.00018232,0.000
 01633,-0.00001364,0.00003054,-0.00003539,-0.00002259,-0.00003561,0.000
 01176,0.00001082,0.00002058,0.00007299,0.00006350,0.00003427,-0.000083
 85,-0.00001474,-0.00011209,0.00004418,0.00003435,0.00000603,0.00006638
 ,0.00005943,-0.00000859,-0.14280261,0.10321637,-0.36150887,0.16843132,
 -0.11434632,0.39337010,0.00009055,0.00001645,-0.00009038,0.00016814,0.
 00005228,-0.00013388,-0.00012237,-0.00000967,0.00014696,0.00002821,-0.
 00000547,-0.00000575,-0.00024934,0.00076940,-0.00054965,0.00009119,0.0
 0021264,-0.00020603,0.00013256,-0.00045122,0.00027122,-0.00006188,0.00
 010268,-0.00003677,0.00034042,0.00064370,0.00028462,-0.00004157,-0.000
 52284,-0.00001855,-0.00088056,-0.00052446,0.00049703,0.00004856,0.0003
 7934,-0.00032886,0.00002019,-0.00001373,0.00003132,0.00000540,0.000237
 21,-0.00011479,0.00002623,0.00011929,-0.00009145,0.00001362,-0.0001763
 9,0.00014837,-0.00001545,0.00003502,-0.00000978,-0.00053859,-0.0005775
 6,0.00001295,0.00112190,0.00044841,0.00056086,-0.00851538,-0.00340920,
 0.00519637,-0.00109569,0.00288904,0.00213010,0.00130545,0.00015601,0.0
 0025512,-0.00029291,-0.00016592,0.00070560,0.00044828,0.00063352,-0.00
 027179,-0.00082096,-0.00065286,-0.00167578,-0.00002454,0.00004443,0.00
 033565,-0.00089137,-0.00051524,-0.00096465,0.00001934,-0.00002145,0.00
 011528,-0.00009178,-0.00007185,-0.00018229,0.00005186,0.00004470,0.000
 13805,0.00012886,0.00013618,0.00014492,0.00004056,0.00003545,-0.000116
 33,-0.00001335,0.00001075,0.00002479,-0.00001200,-0.00002997,0.0000378
 6,-0.21730886,0.09385834,0.22228968,0.01069479,-0.00382643,-0.02158529
 ,0.21620048,0.00012194,-0.00001549,-0.00011380,0.00025224,-0.00001299,
 -0.00022435,-0.00013470,0.00001367,0.00020116,0.00004256,0.00000258,-0
 .00001734,0.00049877,-0.00093187,-0.00099834,0.00022779,0.00031310,-0.
 00005133,-0.00000802,-0.00086701,0.00026986,-0.00004322,0.00003699,0.0
 0006136,0.00006987,-0.00076152,-0.00018041,-0.00001200,-0.00058822,-0.
 00012144,-0.00068638,-0.00041990,0.00006421,0.00014671,0.00051099,-0.0
 0019837,0.00004208,-0.00002324,-0.00001900,0.00013193,0.00033276,-0.00
 029863,0.00009625,-0.00000919,-0.00025685,-0.00005015,-0.00020474,0.00
 043957,-0.00002462,0.00002622,-0.00002009,-0.00186752,-0.00012265,0.00
 048121,0.00393851,0.00218372,0.00222135,-0.00787251,0.00216192,0.00511
 259,0.00110021,0.00194594,0.00334507,0.00007434,-0.00076904,-0.0000231
 9,-0.00037928,0.00013616,0.00060171,0.00038329,-0.00013159,-0.00034494
 ,-0.00112297,-0.00337756,-0.00624749,-0.00018313,0.00019781,0.00031110
 ,0.00021301,0.00066773,0.00025293,0.00003330,-0.00005697,0.00009260,-0
 .00014417,-0.00009598,-0.00028862,0.00005443,0.00006842,0.00017396,0.0
 0030370,0.00010500,0.00019580,0.00006514,0.00000497,-0.00012790,-0.000
 02157,0.00002227,0.00002812,-0.00003155,-0.00002501,0.00006120,0.10193
 340,-0.05651051,-0.11113949,-0.00729712,0.00335071,0.01324521,-0.08985
 058,0.05284250,-0.00029059,-0.00003661,-0.00030839,0.00020694,-0.00000
 468,-0.00040630,0.00005871,0.00002074,0.00055876,-0.00000199,0.0000026
 9,-0.00003951,-0.00061076,-0.00147235,0.00079685,-0.00095553,-0.000925
 45,0.00009119,0.00032946,0.00150830,-0.00057615,0.00002512,-0.00002376
 ,0.00004841,0.00012467,0.00005492,-0.00009474,-0.00016788,-0.00036462,
 0.00002770,-0.00060394,-0.00021881,0.00021865,0.00023212,0.00022119,-0
 .00023729,0.00002195,0.00000579,0.00003234,0.00005316,0.00029614,-0.00
 047475,0.00003542,-0.00030987,-0.00044952,-0.00009589,-0.00003223,0.00
 072883,0.00000530,0.00000365,-0.00003482,-0.00106179,-0.00032073,0.001
 03839,0.00252514,0.00099662,0.00114656,0.00278216,0.00397484,0.0053109
 4,0.00137823,0.00166428,-0.00110468,0.00042661,0.00026287,-0.00093125,
 0.00065271,0.00045732,0.00028998,-0.00034857,-0.00078432,-0.00048078,-
 0.00132091,-0.00258552,-0.00433323,-0.00003376,-0.00001131,-0.00012265
 ,-0.00021804,0.00000265,-0.00016197,-0.00009813,0.00000254,0.00002134,
 0.00006070,0.00007693,0.00000401,-0.00005194,-0.00003998,-0.00011173,0
 .00008323,0.00001519,0.00003224,-0.00008651,-0.00008240,0.00001476,0.0
 0003873,0.00002950,-0.00003018,0.00005161,0.00005440,-0.00002424,0.173
 56717,-0.08211832,-0.27448433,0.03023186,-0.01383220,-0.02932578,-0.20
 694474,0.09351260,0.30337133\\-0.00130492,0.00006000,-0.00142517,0.001
 28109,-0.00063300,-0.00188692,-0.00003368,-0.00011378,0.00251305,-0.00
 006713,0.00014432,-0.00006013,0.00061978,-0.00211348,-0.00039173,0.000
 64057,-0.00060830,0.00056680,-0.00014510,0.00130550,0.00012703,-0.0001
 8118,0.00049116,0.00048753,-0.00088594,-0.00194338,-0.00162413,0.00003
 070,0.00039766,0.00042238,-0.00082069,-0.00000309,0.00041638,0.0003907
 3,0.00063924,-0.00021327,0.00013868,0.00023389,0.00012642,-0.00056938,
 0.00080787,-0.00240260,-0.00002331,-0.00083504,-0.00209665,-0.00028593
 ,-0.00027281,0.00248509,0.00012461,-0.00004724,-0.00002127,0.00241819,
 0.00368131,0.01189847,-0.00148407,-0.00111220,-0.00148341,-0.00013429,
 -0.00035969,0.00116612,-0.00019303,-0.00127748,-0.00173911,-0.00187488
 ,0.00039386,-0.00163207,0.00043912,-0.00031154,0.00034997,-0.00057083,
 -0.00106946,-0.00167799,0.00118908,0.00119881,0.00151905,-0.00017810,-
 0.00026542,-0.00022687,0.00172150,0.00124901,0.00119454,-0.00033841,-0
 .00017732,-0.00020547,0.00134216,0.00053059,-0.02725256,0.00260841,0.0
 0246591,0.01569551,-0.00364288,-0.00288864,0.00535581,-0.00016265,-0.0
 0028262,0.00019969,-0.00001107,0.00010717,-0.00022392,-0.00010185,0.00
 012370,-0.00002689,0.00021870,0.00019498,0.00008565,-0.00010994,0.0000
 0151,-0.00001507,-0.00004408,0.00028798,-0.00000430\\\@
 The archive entry for this job was punched.


 IT'S WHAT YOU LEARN AFTER YOU KNOW IT ALL
 THAT COUNTS.
 Job cpu time:       1 days  5 hours 25 minutes  0.5 seconds.
 Elapsed time:       0 days 14 hours 46 minutes 15.5 seconds.
 File lengths (MBytes):  RWF=   6221 Int=      0 D2E=      0 Chk=    156 Scr=      1
 Normal termination of Gaussian 16 at Wed Feb 22 21:37:13 2023.
