 Entering Gaussian System, Link 0=g16
 Input=FeFeFe-TS1-2xH2O-QST2-H2O_relax-TS-counterpoise-opt.gjf
 Output=FeFeFe-TS1-2xH2O-QST2-H2O_relax-TS-counterpoise-opt.log
 AtFile(1): /zfs/curium/svicchi/00-MOF/01-Gaussian/zw-basis-set/def2-TZVP/H.gbs
            !----------------------------------------------------------------------
            ! Basis Set Exchange
            ! Version v0.9
            ! https://www.basissetexchange.org
            !----------------------------------------------------------------------
            !   Basis set: def2-TZVP
            ! Description: def2-TZVP
            !        Role: orbital
            !     Version: 1  (Data from Turbomole 7.3)
            !----------------------------------------------------------------------
            H     0
            S    3   1.00
                 34.0613410              0.60251978D-02
                  5.1235746              0.45021094D-01
                  1.1646626              0.20189726
            S    1   1.00
                  0.32723041             1.0000000
            S    1   1.00
                  0.10307241             1.0000000
            P    1   1.00
                  0.8000000              1.0000000
 AtFile(1): /zfs/curium/svicchi/00-MOF/01-Gaussian/zw-basis-set/def2-TZVP/O.gbs
            !----------------------------------------------------------------------
            ! Basis Set Exchange
            ! Version v0.9
            ! https://www.basissetexchange.org
            !----------------------------------------------------------------------
            !   Basis set: def2-TZVP
            ! Description: def2-TZVP
            !        Role: orbital
            !     Version: 1  (Data from Turbomole 7.3)
            !----------------------------------------------------------------------
            O     0
            S    6   1.00
              27032.3826310              0.21726302465D-03
               4052.3871392              0.16838662199D-02
                922.32722710             0.87395616265D-02
                261.24070989             0.35239968808D-01
                 85.354641351            0.11153519115
                 31.035035245            0.25588953961
            S    2   1.00
                 12.260860728            0.39768730901
                  4.9987076005           0.24627849430
            S    1   1.00
                  1.1703108158           1.0000000
            S    1   1.00
                  0.46474740994          1.0000000
            S    1   1.00
                  0.18504536357          1.0000000
            P    4   1.00
                 63.274954801            0.60685103418D-02
                 14.627049379            0.41912575824D-01
                  4.4501223456           0.16153841088
                  1.5275799647           0.35706951311
            P    1   1.00
                  0.52935117943           .44794207502
            P    1   1.00
                  0.17478421270           .24446069663
            D    1   1.00
                  2.31400000             1.0000000
            D    1   1.00
                  0.64500000             1.0000000
            F    1   1.00
                  1.42800000             1.0000000
 AtFile(1): /zfs/curium/svicchi/00-MOF/01-Gaussian/zw-basis-set/def2-TZVP/C.gbs
            !----------------------------------------------------------------------
            ! Basis Set Exchange
            ! Version v0.9
            ! https://www.basissetexchange.org
            !----------------------------------------------------------------------
            !   Basis set: def2-TZVP
            ! Description: def2-TZVP
            !        Role: orbital
            !     Version: 1  (Data from Turbomole 7.3)
            !----------------------------------------------------------------------
            C     0
            S    6   1.00
              13575.3496820              0.22245814352D-03
               2035.2333680              0.17232738252D-02
                463.22562359             0.89255715314D-02
                131.20019598             0.35727984502D-01
                 42.853015891            0.11076259931
                 15.584185766            0.24295627626
            S    2   1.00
                  6.2067138508           0.41440263448
                  2.5764896527           0.23744968655
            S    1   1.00
                  0.57696339419          1.0000000
            S    1   1.00
                  0.22972831358          1.0000000
            S    1   1.00
                  0.95164440028D-01      1.0000000
            P    4   1.00
                 34.697232244            0.53333657805D-02
                  7.9582622826           0.35864109092D-01
                  2.3780826883           0.14215873329
                  0.81433208183          0.34270471845
            P    1   1.00
                  0.28887547253           .46445822433
            P    1   1.00
                  0.10056823671           .24955789874
            D    1   1.00
                  1.09700000             1.0000000
            D    1   1.00
                  0.31800000             1.0000000
            F    1   1.00
                  0.76100000             1.0000000
 AtFile(1): /zfs/curium/svicchi/00-MOF/01-Gaussian/zw-basis-set/def2-TZVP/Fe.gbs
            !----------------------------------------------------------------------
            ! Basis Set Exchange
            ! Version v0.9
            ! https://www.basissetexchange.org
            !----------------------------------------------------------------------
            !   Basis set: def2-TZVP
            ! Description: def2-TZVP
            !        Role: orbital
            !     Version: 1  (Data from Turbomole 7.3)
            !----------------------------------------------------------------------
            Fe     0
            S    8   1.00
             300784.8463700              0.22806273096D-03
              45088.9705570              0.17681788761D-02
              10262.5163170              0.91927083490D-02
               2905.2897293              0.37355495807D-01
                946.11487137             0.12151108426
                339.87832894             0.28818881468
                131.94425588             0.41126612677
                 52.111494077            0.21518583573
            S    4   1.00
                329.48839267            -0.24745216477D-01
                101.92332739            -0.11683089050
                 16.240462745            0.55293621136
                  6.8840675801           0.53601640182
            S    2   1.00
                 10.470693782           -0.22912708577
                  1.7360039648           0.71159319984
            S    1   1.00
                  0.72577288979          1.0000000
            S    1   1.00
                  0.11595528203          1.0000000
            S    1   1.00
                  0.41968227746D-01      1.0000000
            P    6   1.00
               1585.3959970              0.23793960179D-02
                375.38006499             0.19253154755D-01
                120.31816501             0.90021836536D-01
                 44.788749031            0.25798172356
                 17.829278584            0.41492649744
                  7.2247153786           0.24207474784
            P    3   1.00
                 28.143219756           -0.29041755152D-01
                  3.8743241412           0.55312260343
                  1.5410752281           0.96771136842
            P    1   1.00
                  0.58285615250          1.0000000
            P    1   1.00
                  0.1349150              1.0000000
            D    4   1.00
                 61.996675034            0.11971972255D-01
                 17.873732552            0.73210135410D-01
                  6.2744782934           0.23103094314
                  2.3552337175           0.39910706494
            D    1   1.00
                  0.85432239901           .41391589765
            D    1   1.00
                  0.27869254413           .21909269782
            D    1   1.00
                  0.0910000              1.0000000
            F    1   1.00
                  1.5980000              1.0000000
 AtFile(1): /zfs/curium/svicchi/00-MOF/01-Gaussian/zw-basis-set/def2-TZVP/N.gbs
            !----------------------------------------------------------------------
            ! Basis Set Exchange
            ! Version v0.9
            ! https://www.basissetexchange.org
            !----------------------------------------------------------------------
            !   Basis set: def2-TZVP
            ! Description: def2-TZVP
            !        Role: orbital
            !     Version: 1  (Data from Turbomole 7.3)
            !----------------------------------------------------------------------
            N     0
            S    6   1.00
              19730.8006470              0.21887984991D-03
               2957.8958745              0.16960708803D-02
                673.22133595             0.87954603538D-02
                190.68249494             0.35359382605D-01
                 62.295441898            0.11095789217
                 22.654161182            0.24982972552
            S    2   1.00
                  8.9791477428           0.40623896148
                  3.6863002370           0.24338217176
            S    1   1.00
                  0.84660076805          1.0000000
            S    1   1.00
                  0.33647133771          1.0000000
            S    1   1.00
                  0.13647653675          1.0000000
            P    4   1.00
                 49.200380510            0.55552416751D-02
                 11.346790537            0.38052379723D-01
                  3.4273972411           0.14953671029
                  1.1785525134           0.34949305230
            P    1   1.00
                  0.41642204972           .45843153697
            P    1   1.00
                  0.14260826011           .24428771672
            D    1   1.00
                  1.65400000             1.0000000
            D    1   1.00
                  0.46900000             1.0000000
            F    1   1.00
                  1.09300000             1.0000000
 Initial command:
 /software/commercial/gaussian/g16/AVX2/g16/l1.exe "/scratch1/svicchi/G09-186663.pbs02/Gau-109253.inp" -scrdir="/scratch1/svicchi/G09-186663.pbs02/"
 Entering Link 1 = /software/commercial/gaussian/g16/AVX2/g16/l1.exe PID=    109255.
  
 Copyright (c) 1988-2021, Gaussian, Inc.  All Rights Reserved.
  
 This is part of the Gaussian(R) 16 program.  It is based on
 the Gaussian(R) 09 system (copyright 2009, Gaussian, Inc.),
 the Gaussian(R) 03 system (copyright 2003, Gaussian, Inc.),
 the Gaussian(R) 98 system (copyright 1998, Gaussian, Inc.),
 the Gaussian(R) 94 system (copyright 1995, Gaussian, Inc.),
 the Gaussian 92(TM) system (copyright 1992, Gaussian, Inc.),
 the Gaussian 90(TM) system (copyright 1990, Gaussian, Inc.),
 the Gaussian 88(TM) system (copyright 1988, Gaussian, Inc.),
 the Gaussian 86(TM) system (copyright 1986, Carnegie Mellon
 University), and the Gaussian 82(TM) system (copyright 1983,
 Carnegie Mellon University). Gaussian is a federally registered
 trademark of Gaussian, Inc.
  
 This software contains proprietary and confidential information,
 including trade secrets, belonging to Gaussian, Inc.
  
 This software is provided under written license and may be
 used, copied, transmitted, or stored only in accord with that
 written license.
  
 The following legend is applicable only to US Government
 contracts under FAR:
  
                    RESTRICTED RIGHTS LEGEND
  
 Use, reproduction and disclosure by the US Government is
 subject to restrictions as set forth in subparagraphs (a)
 and (c) of the Commercial Computer Software - Restricted
 Rights clause in FAR 52.227-19.
  
 Gaussian, Inc.
 340 Quinnipiac St., Bldg. 40, Wallingford CT 06492
  
  
 ---------------------------------------------------------------
 Warning -- This program may not be used in any manner that
 competes with the business of Gaussian, Inc. or will provide
 assistance to any competitor of Gaussian, Inc.  The licensee
 of this program is prohibited from giving any competitor of
 Gaussian, Inc. access to this program.  By using this program,
 the user acknowledges that Gaussian, Inc. is engaged in the
 business of creating and licensing software in the field of
 computational chemistry and represents and warrants to the
 licensee that it is not a competitor of Gaussian, Inc. and that
 it will not use this program in any manner prohibited above.
 ---------------------------------------------------------------
  

 Cite this work as:
 Gaussian 16, Revision C.02,
 M. J. Frisch, G. W. Trucks, H. B. Schlegel, G. E. Scuseria, 
 M. A. Robb, J. R. Cheeseman, G. Scalmani, V. Barone, 
 G. A. Petersson, H. Nakatsuji, X. Li, M. Caricato, A. V. Marenich, 
 J. Bloino, B. G. Janesko, R. Gomperts, B. Mennucci, H. P. Hratchian, 
 J. V. Ortiz, A. F. Izmaylov, J. L. Sonnenberg, D. Williams-Young, 
 F. Ding, F. Lipparini, F. Egidi, J. Goings, B. Peng, A. Petrone, 
 T. Henderson, D. Ranasinghe, V. G. Zakrzewski, J. Gao, N. Rega, 
 G. Zheng, W. Liang, M. Hada, M. Ehara, K. Toyota, R. Fukuda, 
 J. Hasegawa, M. Ishida, T. Nakajima, Y. Honda, O. Kitao, H. Nakai, 
 T. Vreven, K. Throssell, J. A. Montgomery, Jr., J. E. Peralta, 
 F. Ogliaro, M. J. Bearpark, J. J. Heyd, E. N. Brothers, K. N. Kudin, 
 V. N. Staroverov, T. A. Keith, R. Kobayashi, J. Normand, 
 K. Raghavachari, A. P. Rendell, J. C. Burant, S. S. Iyengar, 
 J. Tomasi, M. Cossi, J. M. Millam, M. Klene, C. Adamo, R. Cammi, 
 J. W. Ochterski, R. L. Martin, K. Morokuma, O. Farkas, 
 J. B. Foresman, and D. J. Fox, Gaussian, Inc., Wallingford CT, 2019.
 
 ******************************************
 Gaussian 16:  ES64L-G16RevC.02  7-Dec-2021
                24-Feb-2023 
 ******************************************
 %NProcShared=2
 Will use up to    2 processors via shared memory.
 %mem=110gb
 %chk=/scratch1/svicchi/G09-186663.pbs02/00-opt/FeFeFe-TS1-2xH2O-QST2-H2O_relax-T
 S-counterpoise-opt.chk
 ----------------------------------------------------------------------
 #p gen um06l int=grid=ultrafine scf=(xqc,intrep,maxconventionalcycle=1
 50) pop=(hirshfeld) nosymm counterpoise=4
 ----------------------------------------------------------------------
 1/38=1,62=4,172=1/1;
 2/12=2,15=1,17=6,18=5,40=1/2;
 1/38=1,53=2,62=4,63=1/22;
 3/5=7,11=2,25=1,30=1,74=-53,75=-5,116=2/1,2,3;
 4//1;
 5/5=2,8=3,13=1,17=20,38=5,85=150/2,8;
 6/7=2,8=2,9=2,10=2,28=1,79=1/1;
 1/53=2,62=4,63=1/22;
 3/5=7,6=11,11=2,25=1,30=1,74=-53,75=-5,82=7,116=2/1,2,3;
 4//1;
 5/5=2,8=3,13=1,17=20,38=5,85=150/2,8;
 6/7=2,8=2,9=2,10=2,28=1,79=1/1;
 1/53=2,62=4,63=1/22(-4);
 99/5=1,9=1/99;
 Leave Link    1 at Fri Feb 24 15:53:52 2023, MaxMem= 14763950080 cpu:               0.0 elap:               1.7
 (Enter /software/commercial/gaussian/g16/AVX2/g16/l101.exe)
 ---------------
 FeFeFe-AO-2xH2O
 ---------------
 Symbolic Z-matrix:
 Charge =  0 Multiplicity =15 in supermolecule
 Charge =  0 Multiplicity =15 in fragment      1.
 Charge =  0 Multiplicity = 1 in fragment      2.
 Charge =  0 Multiplicity = 1 in fragment      3.
 Charge =  0 Multiplicity = 1 in fragment      4.
 O(fragment=1)        -0.01597  -0.01136  -0.00816 
 O(fragment=1)        -0.00276   0.03341   2.24455 
 C(fragment=1)         0.53549   0.00332   1.12583 
 H(fragment=1)         1.63923  -0.0053    1.10941 
 O(fragment=1)        -4.93603  -1.62016  -0.46157 
 O(fragment=1)        -3.89302   0.2288   -1.20209 
 C(fragment=1)        -4.87807  -0.53045  -1.07864 
 H(fragment=1)        -5.80855  -0.2041   -1.57832 
 O(fragment=1)        -1.36926  -2.20291   3.45461 
 O(fragment=1)        -1.74769  -1.64369  -1.60351 
 O(fragment=1)        -2.70062  -3.36344  -0.506 
 C(fragment=1)        -2.022    -2.85425  -1.42376 
 H(fragment=1)        -1.6156   -3.557    -2.17208 
 O(fragment=1)        -2.48963   1.66239   2.46569 
 O(fragment=1)        -2.21025   1.90277   0.24371 
 C(fragment=1)        -2.48585   2.30831   1.40643 
 H(fragment=1)        -2.75642   3.37644   1.4775 
 Fe(fragment=1)       -1.86603  -0.2039    3.09654 
 O(fragment=1)        -3.81319  -0.60819   3.73953 
 Fe(fragment=1)       -3.66367  -2.40513   1.02443 
 O(fragment=1)        -5.10389  -1.84137   2.36873 
 O(fragment=1)        -2.80693  -3.56478   2.37905 
 Fe(fragment=1)       -1.97851   0.01002  -0.3628 
 O(fragment=1)        -2.54382  -0.91195   1.16688 
 C(fragment=1)        -4.88019  -1.13375   3.3919 
 H(fragment=1)        -5.75381  -0.97587   4.04957 
 C(fragment=1)        -1.85521  -3.30665   3.17063 
 H(fragment=1)        -1.41517  -4.19053   3.66504 
 N(fragment=2)        -2.04848  -0.15172   6.0141 
 N(fragment=2)        -1.85826   0.0438    7.10992 
 O(fragment=1)        -1.32018   0.38841   4.73829 
 O(fragment=3)        -1.50434   0.94905  -2.31216 
 H(fragment=3)        -1.43032   0.18093  -2.89414 
 H(fragment=3)        -2.33574   1.37761  -2.55321 
 O(fragment=4)        -5.20909  -3.99003   0.78101 
 H(fragment=4)        -5.63703  -3.69591  -0.03453 
 H(fragment=4)        -5.80949  -3.69874   1.4824 
 
 ITRead=  0  0  0  0  0  0  0  0  0  0  0  0  0  0  0  0  0  0  0  0
 ITRead=  0  0  0  0  0  0  0  0  0  0  0  0  0  0  0  0  0
 MicOpt= -1 -1 -1 -1 -1 -1 -1 -1 -1 -1 -1 -1 -1 -1 -1 -1 -1 -1 -1 -1
 MicOpt= -1 -1 -1 -1 -1 -1 -1 -1 -1 -1 -1 -1 -1 -1 -1 -1 -1
 NAtoms=     37 NQM=       37 NQMF=       0 NMMI=      0 NMMIF=      0
                NMic=       0 NMicF=      0.
                    Isotopes and Nuclear Properties:
 (Nuclear quadrupole moments (NQMom) in fm**2, nuclear magnetic moments (NMagM)
  in nuclear magnetons)

  Atom         1           2           3           4           5           6           7           8           9          10
 IAtWgt=          16          16          12           1          16          16          12           1          16          16
 AtmWgt=  15.9949146  15.9949146  12.0000000   1.0078250  15.9949146  15.9949146  12.0000000   1.0078250  15.9949146  15.9949146
 NucSpn=           0           0           0           1           0           0           0           1           0           0
 AtZEff=  -0.0000000  -0.0000000  -0.0000000  -0.0000000  -0.0000000  -0.0000000  -0.0000000  -0.0000000  -0.0000000  -0.0000000
 NQMom=    0.0000000   0.0000000   0.0000000   0.0000000   0.0000000   0.0000000   0.0000000   0.0000000   0.0000000   0.0000000
 NMagM=    0.0000000   0.0000000   0.0000000   2.7928460   0.0000000   0.0000000   0.0000000   2.7928460   0.0000000   0.0000000
 AtZNuc=   8.0000000   8.0000000   6.0000000   1.0000000   8.0000000   8.0000000   6.0000000   1.0000000   8.0000000   8.0000000

  Atom        11          12          13          14          15          16          17          18          19          20
 IAtWgt=          16          12           1          16          16          12           1          56          16          56
 AtmWgt=  15.9949146  12.0000000   1.0078250  15.9949146  15.9949146  12.0000000   1.0078250  55.9349393  15.9949146  55.9349393
 NucSpn=           0           0           1           0           0           0           1           0           0           0
 AtZEff=  -0.0000000  -0.0000000  -0.0000000  -0.0000000  -0.0000000  -0.0000000  -0.0000000  -0.0000000  -0.0000000  -0.0000000
 NQMom=    0.0000000   0.0000000   0.0000000   0.0000000   0.0000000   0.0000000   0.0000000   0.0000000   0.0000000   0.0000000
 NMagM=    0.0000000   0.0000000   2.7928460   0.0000000   0.0000000   0.0000000   2.7928460   0.0000000   0.0000000   0.0000000
 AtZNuc=   8.0000000   6.0000000   1.0000000   8.0000000   8.0000000   6.0000000   1.0000000  26.0000000   8.0000000  26.0000000

  Atom        21          22          23          24          25          26          27          28          29          30
 IAtWgt=          16          16          56          16          12           1          12           1          14          14
 AtmWgt=  15.9949146  15.9949146  55.9349393  15.9949146  12.0000000   1.0078250  12.0000000   1.0078250  14.0030740  14.0030740
 NucSpn=           0           0           0           0           0           1           0           1           2           2
 AtZEff=  -0.0000000  -0.0000000  -0.0000000  -0.0000000  -0.0000000  -0.0000000  -0.0000000  -0.0000000  -0.0000000  -0.0000000
 NQMom=    0.0000000   0.0000000   0.0000000   0.0000000   0.0000000   0.0000000   0.0000000   0.0000000   2.0440000   2.0440000
 NMagM=    0.0000000   0.0000000   0.0000000   0.0000000   0.0000000   2.7928460   0.0000000   2.7928460   0.4037610   0.4037610
 AtZNuc=   8.0000000   8.0000000  26.0000000   8.0000000   6.0000000   1.0000000   6.0000000   1.0000000   7.0000000   7.0000000

  Atom        31          32          33          34          35          36          37
 IAtWgt=          16          16           1           1          16           1           1
 AtmWgt=  15.9949146  15.9949146   1.0078250   1.0078250  15.9949146   1.0078250   1.0078250
 NucSpn=           0           0           1           1           0           1           1
 AtZEff=  -0.0000000  -0.0000000  -0.0000000  -0.0000000  -0.0000000  -0.0000000  -0.0000000
 NQMom=    0.0000000   0.0000000   0.0000000   0.0000000   0.0000000   0.0000000   0.0000000
 NMagM=    0.0000000   0.0000000   2.7928460   2.7928460   0.0000000   2.7928460   2.7928460
 AtZNuc=   8.0000000   8.0000000   1.0000000   1.0000000   8.0000000   1.0000000   1.0000000
 Leave Link  101 at Fri Feb 24 15:53:56 2023, MaxMem= 14763950080 cpu:               0.2 elap:               1.3
 (Enter /software/commercial/gaussian/g16/AVX2/g16/l202.exe)
                          Input orientation:                          
 ---------------------------------------------------------------------
 Center     Atomic      Atomic             Coordinates (Angstroms)
 Number     Number       Type             X           Y           Z
 ---------------------------------------------------------------------
      1          8           0       -0.015971   -0.011356   -0.008160
      2          8           0       -0.002755    0.033407    2.244547
      3          6           0        0.535489    0.003318    1.125827
      4          1           0        1.639227   -0.005300    1.109411
      5          8           0       -4.936030   -1.620160   -0.461565
      6          8           0       -3.893019    0.228798   -1.202088
      7          6           0       -4.878070   -0.530449   -1.078641
      8          1           0       -5.808546   -0.204103   -1.578320
      9          8           0       -1.369260   -2.202915    3.454614
     10          8           0       -1.747692   -1.643688   -1.603509
     11          8           0       -2.700620   -3.363439   -0.505995
     12          6           0       -2.021999   -2.854252   -1.423761
     13          1           0       -1.615595   -3.557003   -2.172076
     14          8           0       -2.489633    1.662385    2.465694
     15          8           0       -2.210245    1.902768    0.243711
     16          6           0       -2.485849    2.308307    1.406431
     17          1           0       -2.756422    3.376441    1.477499
     18         26           0       -1.866029   -0.203898    3.096539
     19          8           0       -3.813187   -0.608186    3.739529
     20         26           0       -3.663668   -2.405126    1.024432
     21          8           0       -5.103888   -1.841374    2.368726
     22          8           0       -2.806930   -3.564779    2.379048
     23         26           0       -1.978507    0.010023   -0.362796
     24          8           0       -2.543821   -0.911950    1.166884
     25          6           0       -4.880192   -1.133753    3.391904
     26          1           0       -5.753810   -0.975873    4.049575
     27          6           0       -1.855208   -3.306646    3.170634
     28          1           0       -1.415171   -4.190532    3.665041
     29          7           0       -2.048481   -0.151719    6.014099
     30          7           0       -1.858258    0.043795    7.109920
     31          8           0       -1.320180    0.388405    4.738290
     32          8           0       -1.504337    0.949053   -2.312157
     33          1           0       -1.430321    0.180934   -2.894136
     34          1           0       -2.335735    1.377613   -2.553213
     35          8           0       -5.209090   -3.990029    0.781006
     36          1           0       -5.637031   -3.695906   -0.034530
     37          1           0       -5.809486   -3.698737    1.482404
 ---------------------------------------------------------------------
                    Distance matrix (angstroms):
                    1          2          3          4          5
     1  O    0.000000
     2  O    2.253190   0.000000
     3  C    1.261051   1.241832   0.000000
     4  H    1.997169   1.996531   1.103894   0.000000
     5  O    5.196230   5.864685   5.923936   6.950521   0.000000
     6  O    4.063821   5.201118   5.008165   6.000298   2.248309
     7  C    5.005536   5.927074   5.869515   6.894818   1.253640
     8  H    6.004705   6.955425   6.899436   7.920400   2.003408
     9  O    4.315684   2.886648   3.730788   4.402327   5.328969
    10  O    2.865049   4.545876   3.921074   4.638477   3.386752
    11  O    4.323383   5.136392   4.946746   5.720219   2.835146
    12  C    3.756346   5.086492   4.605090   5.285647   3.307625
    13  H    4.451173   5.915983   5.308410   5.828947   4.207434
    14  O    3.878191   2.981113   3.701231   4.654907   5.032773
    15  O    2.922695   3.517224   3.453273   4.382761   4.509805
    16  C    3.671812   3.470355   3.810538   4.738908   4.992559
    17  H    4.603740   4.398513   4.726342   5.558182   5.785904
    18  Fe   3.619246   2.062521   3.113508   4.034221   4.908239
    19  O    5.368447   4.143188   5.110417   6.083569   4.464757
    20  Fe   4.483534   4.564801   4.841880   5.821261   2.107905
    21  O    5.906391   5.436155   6.062199   7.101172   2.843881
    22  O    5.110287   4.563818   5.047142   5.835253   4.047677
    23  Fe   1.994435   3.271449   2.921681   3.905845   3.378490
    24  O    2.929475   2.917546   3.212717   4.280562   2.979274
    25  C    6.039938   5.144714   5.979769   6.999000   3.884448
    26  H    7.093540   6.111580   7.004456   8.015209   4.629714
    27  C    4.934213   3.930035   4.566457   5.230545   5.052580
    28  H    5.737219   4.674867   5.276463   5.777262   6.002678
    29  N    6.357547   4.292877   5.531378   6.138126   7.240752
    30  N    7.352831   5.207192   6.445233   6.945568   8.340792
    31  O    4.938578   2.842602   4.079423   4.699134   6.644336
    32  O    2.906204   4.884333   4.107924   4.743407   4.669268
    33  H    3.219661   5.335332   4.478399   5.048287   4.631559
    34  H    3.713197   5.501653   4.864972   5.579210   4.485885
    35  O    6.589469   6.740617   7.004706   7.930029   2.689763
    36  H    6.721080   7.130711   7.289080   8.238513   2.232148
    37  H    7.027331   6.944630   7.354663   8.322495   2.976982
                    6          7          8          9         10
     6  O    0.000000
     7  C    1.249808   0.000000
     8  H    1.999549   1.105426   0.000000
     9  O    5.828161   5.971540   7.002352   0.000000
    10  O    2.875721   3.363637   4.308547   5.102995   0.000000
    11  O    3.848445   3.618708   4.559659   4.336561   2.251700
    12  C    3.613178   3.698150   4.624404   4.964761   1.254200
    13  H    4.523254   4.582507   5.401419   5.792571   2.000373
    14  O    4.180585   4.803693   5.554549   4.144121   5.295187
    15  O    2.779251   3.845315   4.550437   5.279563   4.025361
    16  C    3.620615   4.467308   5.124574   5.078676   5.022238
    17  H    4.287155   5.128258   5.610150   6.079672   5.975939
    18  Fe   4.772223   5.158600   6.115370   2.090709   4.917057
    19  O    5.012633   4.935056   5.694230   2.932084   5.821219
    20  Fe   3.456523   3.067915   4.027322   3.348280   3.340183
    21  O    4.301457   3.695113   4.330863   3.906061   5.204016
    22  O    5.328729   5.045036   5.997050   2.253533   4.546794
    23  Fe   2.101816   3.035129   4.023996   4.454312   2.080241
    24  O    2.955278   3.261387   4.323843   2.877480   2.973943
    25  C    4.892425   4.511070   5.140935   3.670652   5.918339
    26  H    5.700328   5.221487   5.680830   4.591720   6.960770
    27  C    5.981031   5.907732   6.914276   1.238956   5.056622
    28  H    7.025607   6.920289   7.917461   1.999252   5.861280
    29  N    7.457913   7.645716   8.472642   3.349584   7.768166
    30  N    8.559437   8.746517   9.547342   4.318343   8.876016
    31  O    6.475575   6.880375   7.771490   2.892261   6.673124
    32  O    2.730718   3.884915   4.516027   6.573340   2.698835
    33  H    2.988344   3.960942   4.587862   6.781821   2.257363
    34  H    2.360180   3.504073   3.938611   7.060329   3.221179
    35  O    4.843883   3.941644   4.501000   5.008618   4.813783
    36  H    4.450626   3.418524   3.821700   5.711131   4.669074
    37  H    5.128828   4.179059   4.645482   5.083572   5.499478
                   11         12         13         14         15
    11  O    0.000000
    12  C    1.249837   0.000000
    13  H    1.997642   1.104083   0.000000
    14  O    5.842462   5.978842   7.036680   0.000000
    15  O    5.341859   5.044317   5.999895   2.252343   0.000000
    16  C    5.989341   5.905689   6.925671   1.240672   1.261878
    17  H    7.025905   6.912179   7.917925   1.996420   1.998063
    18  Fe   4.863897   5.242310   6.250147   2.066364   3.563026
    19  O    5.182055   5.908700   6.962184   2.920607   4.592936
    20  Fe   2.046468   2.981684   3.967252   4.472163   4.613016
    21  O    4.044305   4.990683   5.977496   4.372649   5.187240
    22  O    2.894013   3.947445   4.704473   5.237502   5.899980
    23  Fe   3.452854   3.054768   4.016077   3.315404   2.001009
    24  O    2.972021   3.279676   4.359652   2.883929   2.980966
    25  C    4.991558   5.858329   6.891125   3.793550   5.124470
    26  H    5.981276   6.885647   7.905441   4.485971   5.943739
    27  C    3.773002   4.619626   5.353937   5.058726   5.985894
    28  H    4.442297   5.296205   5.874816   6.070382   7.033203
    29  N    7.297401   7.913668   8.876757   4.009584   6.127354
    30  N    8.385760   9.013834   9.958920   4.958559   7.122114
    31  O    6.594276   6.998446   7.962831   2.855755   4.825635
    32  O    4.826065   3.939841   4.509605   4.930265   2.817861
    33  H    4.458638   3.424097   3.811544   5.660796   3.663206
    34  H    5.177047   4.391215   5.001430   5.029335   2.848564
    35  O    2.888150   4.038383   4.671339   6.494875   6.633763
    36  H    2.992545   3.963181   4.556352   6.698397   6.570040
    37  H    3.705564   4.848093   5.564534   6.381999   6.772426
                   16         17         18         19         20
    16  C    0.000000
    17  H    1.104161   0.000000
    18  Fe   3.090601   4.029010   0.000000
    19  O    3.963723   4.702211   2.090050   0.000000
    20  Fe   4.873359   5.869828   3.517178   3.259310   0.000000
    21  O    4.999999   5.790551   3.700645   2.250725   2.049189
    22  O    5.961729   6.999705   3.563090   3.406597   1.978327
    23  Fe   2.944430   3.914666   3.467768   4.536221   3.255321
    24  O    3.229675   4.304878   2.164326   2.884799   1.871877
    25  C    4.639263   5.340149   3.168130   1.239179   2.949787
    26  H    5.334006   5.877291   4.076649   1.999335   3.944990
    27  C    5.919275   6.952880   3.103651   3.382161   2.947787
    28  H    6.962943   7.990205   4.052125   4.311523   3.900799
    29  N    5.241529   5.790495   2.923725   2.914827   5.708191
    30  N    6.168604   6.605861   4.021025   3.950489   6.803667
    31  O    4.018220   4.650151   1.828694   2.864577   5.204661
    32  O    4.079073   4.671340   5.542031   6.661733   5.200582
    33  H    4.912711   5.575034   6.018814   7.092691   5.199108
    34  H    4.070320   4.518731   5.885703   6.762016   5.373273
    35  O    6.890300   7.795227   5.556306   4.705132   2.226994
    36  H    6.932308   7.784744   6.018153   5.206145   2.584894
    37  H    6.865633   7.705801   5.510915   4.316402   2.547097
                   21         22         23         24         25
    21  O    0.000000
    22  O    2.871628   0.000000
    23  Fe   4.544985   4.580743   0.000000
    24  O    2.976944   2.928493   1.873375   0.000000
    25  C    1.263986   3.351743   4.881165   3.233967   0.000000
    26  H    1.999186   4.263472   5.890155   4.314861   1.104837
    27  C    3.652944   1.264522   4.847744   3.197463   3.731079
    28  H    4.561317   1.995580   5.846835   4.273610   4.628701
    29  N    5.047692   5.043592   6.379330   4.931410   3.982322
    30  N    6.047057   6.025192   7.473760   6.058310   4.933796
    31  O    4.990310   4.837780   5.157291   3.992889   4.099196
    32  O    6.530997   6.639189   2.215090   4.080145   6.947718
    33  H    6.729230   6.613009   2.595650   4.350421   7.290014
    34  H    6.500002   6.998319   2.606883   4.373159   6.937264
    35  O    2.673694   2.916324   5.267387   4.089882   3.883719
    36  H    3.082072   3.721831   5.217899   4.331484   4.344869
    37  H    2.175599   3.136440   5.642346   4.304684   3.330003
                   26         27         28         29         30
    26  H    0.000000
    27  C    4.626461   0.000000
    28  H    5.413473   1.104231   0.000000
    29  N    4.274114   4.251613   4.714994   0.000000
    30  N    5.057743   5.171406   5.476590   1.129263   0.000000
    31  O    4.689633   4.049346   4.703993   1.565198   2.456199
    32  O    7.888916   6.949466   7.883539   8.416313   9.472079
    33  H    8.261107   7.008936   7.882433   8.935851  10.014144
    34  H    7.798650   7.411856   8.397521   8.707480   9.766432
    35  O    4.479442   4.174429   4.769872   7.218541   8.219183
    36  H    4.908374   4.972603   5.635209   7.875587   8.905485
    37  H    3.742653   4.317426   4.931102   6.874791   7.828645
                   31         32         33         34         35
    31  O    0.000000
    32  O    7.075100   0.000000
    33  H    7.636040   0.966532   0.000000
    34  H    7.428048   0.965916   1.538845   0.000000
    35  O    7.067843   6.905605   6.721808   6.941525   0.000000
    36  H    7.622113   6.621359   6.395596   6.556136   0.966820
    37  H    6.889078   7.384778   7.306370   7.356798   0.968135
                   36         37
    36  H    0.000000
    37  H    1.526708   0.000000
 Symmetry turned off by external request.
 Stoichiometry    C6H10Fe3N2O16(15)
 Framework group  C1[X(C6H10Fe3N2O16)]
 Deg. of freedom   105
 Full point group                 C1      NOp   1
 Rotational constants (GHZ):           0.2139874           0.1574793           0.1216389
 Leave Link  202 at Fri Feb 24 15:53:59 2023, MaxMem= 14763950080 cpu:               0.1 elap:               2.0
 (Enter /software/commercial/gaussian/g16/AVX2/g16/l122.exe)
 Counterpoise: doing full-system calculation.
 Leave Link  122 at Fri Feb 24 15:54:02 2023, MaxMem= 14763950080 cpu:               0.0 elap:               1.2
 (Enter /software/commercial/gaussian/g16/AVX2/g16/l301.exe)
 General basis read from cards:  (5D, 7F)
 Centers:       4      8     13     17     26     28     33     34     36     37
 S 3 1.00
     Exponent=  3.4061341000D+01 Coefficients=  6.0251978000D-03
     Exponent=  5.1235746000D+00 Coefficients=  4.5021094000D-02
     Exponent=  1.1646626000D+00 Coefficients=  2.0189726000D-01
 S 1 1.00
     Exponent=  3.2723041000D-01 Coefficients=  1.0000000000D+00
 S 1 1.00
     Exponent=  1.0307241000D-01 Coefficients=  1.0000000000D+00
 P 1 1.00
     Exponent=  8.0000000000D-01 Coefficients=  1.0000000000D+00
 ****
 Centers:       1      2      5      6      9     10     11     14     15     19
 Centers:      21     22     24     31     32     35
 S 6 1.00
     Exponent=  2.7032382631D+04 Coefficients=  2.1726302465D-04
     Exponent=  4.0523871392D+03 Coefficients=  1.6838662199D-03
     Exponent=  9.2232722710D+02 Coefficients=  8.7395616265D-03
     Exponent=  2.6124070989D+02 Coefficients=  3.5239968808D-02
     Exponent=  8.5354641351D+01 Coefficients=  1.1153519115D-01
     Exponent=  3.1035035245D+01 Coefficients=  2.5588953961D-01
 S 2 1.00
     Exponent=  1.2260860728D+01 Coefficients=  3.9768730901D-01
     Exponent=  4.9987076005D+00 Coefficients=  2.4627849430D-01
 S 1 1.00
     Exponent=  1.1703108158D+00 Coefficients=  1.0000000000D+00
 S 1 1.00
     Exponent=  4.6474740994D-01 Coefficients=  1.0000000000D+00
 S 1 1.00
     Exponent=  1.8504536357D-01 Coefficients=  1.0000000000D+00
 P 4 1.00
     Exponent=  6.3274954801D+01 Coefficients=  6.0685103418D-03
     Exponent=  1.4627049379D+01 Coefficients=  4.1912575824D-02
     Exponent=  4.4501223456D+00 Coefficients=  1.6153841088D-01
     Exponent=  1.5275799647D+00 Coefficients=  3.5706951311D-01
 P 1 1.00
     Exponent=  5.2935117943D-01 Coefficients=  4.4794207502D-01
 P 1 1.00
     Exponent=  1.7478421270D-01 Coefficients=  2.4446069663D-01
 D 1 1.00
     Exponent=  2.3140000000D+00 Coefficients=  1.0000000000D+00
 D 1 1.00
     Exponent=  6.4500000000D-01 Coefficients=  1.0000000000D+00
 F 1 1.00
     Exponent=  1.4280000000D+00 Coefficients=  1.0000000000D+00
 ****
 Centers:       3      7     12     16     25     27
 S 6 1.00
     Exponent=  1.3575349682D+04 Coefficients=  2.2245814352D-04
     Exponent=  2.0352333680D+03 Coefficients=  1.7232738252D-03
     Exponent=  4.6322562359D+02 Coefficients=  8.9255715314D-03
     Exponent=  1.3120019598D+02 Coefficients=  3.5727984502D-02
     Exponent=  4.2853015891D+01 Coefficients=  1.1076259931D-01
     Exponent=  1.5584185766D+01 Coefficients=  2.4295627626D-01
 S 2 1.00
     Exponent=  6.2067138508D+00 Coefficients=  4.1440263448D-01
     Exponent=  2.5764896527D+00 Coefficients=  2.3744968655D-01
 S 1 1.00
     Exponent=  5.7696339419D-01 Coefficients=  1.0000000000D+00
 S 1 1.00
     Exponent=  2.2972831358D-01 Coefficients=  1.0000000000D+00
 S 1 1.00
     Exponent=  9.5164440028D-02 Coefficients=  1.0000000000D+00
 P 4 1.00
     Exponent=  3.4697232244D+01 Coefficients=  5.3333657805D-03
     Exponent=  7.9582622826D+00 Coefficients=  3.5864109092D-02
     Exponent=  2.3780826883D+00 Coefficients=  1.4215873329D-01
     Exponent=  8.1433208183D-01 Coefficients=  3.4270471845D-01
 P 1 1.00
     Exponent=  2.8887547253D-01 Coefficients=  4.6445822433D-01
 P 1 1.00
     Exponent=  1.0056823671D-01 Coefficients=  2.4955789874D-01
 D 1 1.00
     Exponent=  1.0970000000D+00 Coefficients=  1.0000000000D+00
 D 1 1.00
     Exponent=  3.1800000000D-01 Coefficients=  1.0000000000D+00
 F 1 1.00
     Exponent=  7.6100000000D-01 Coefficients=  1.0000000000D+00
 ****
 Centers:      18     20     23
 S 8 1.00
     Exponent=  3.0078484637D+05 Coefficients=  2.2806273096D-04
     Exponent=  4.5088970557D+04 Coefficients=  1.7681788761D-03
     Exponent=  1.0262516317D+04 Coefficients=  9.1927083490D-03
     Exponent=  2.9052897293D+03 Coefficients=  3.7355495807D-02
     Exponent=  9.4611487137D+02 Coefficients=  1.2151108426D-01
     Exponent=  3.3987832894D+02 Coefficients=  2.8818881468D-01
     Exponent=  1.3194425588D+02 Coefficients=  4.1126612677D-01
     Exponent=  5.2111494077D+01 Coefficients=  2.1518583573D-01
 S 4 1.00
     Exponent=  3.2948839267D+02 Coefficients= -2.4745216477D-02
     Exponent=  1.0192332739D+02 Coefficients= -1.1683089050D-01
     Exponent=  1.6240462745D+01 Coefficients=  5.5293621136D-01
     Exponent=  6.8840675801D+00 Coefficients=  5.3601640182D-01
 S 2 1.00
     Exponent=  1.0470693782D+01 Coefficients= -2.2912708577D-01
     Exponent=  1.7360039648D+00 Coefficients=  7.1159319984D-01
 S 1 1.00
     Exponent=  7.2577288979D-01 Coefficients=  1.0000000000D+00
 S 1 1.00
     Exponent=  1.1595528203D-01 Coefficients=  1.0000000000D+00
 S 1 1.00
     Exponent=  4.1968227746D-02 Coefficients=  1.0000000000D+00
 P 6 1.00
     Exponent=  1.5853959970D+03 Coefficients=  2.3793960179D-03
     Exponent=  3.7538006499D+02 Coefficients=  1.9253154755D-02
     Exponent=  1.2031816501D+02 Coefficients=  9.0021836536D-02
     Exponent=  4.4788749031D+01 Coefficients=  2.5798172356D-01
     Exponent=  1.7829278584D+01 Coefficients=  4.1492649744D-01
     Exponent=  7.2247153786D+00 Coefficients=  2.4207474784D-01
 P 3 1.00
     Exponent=  2.8143219756D+01 Coefficients= -2.9041755152D-02
     Exponent=  3.8743241412D+00 Coefficients=  5.5312260343D-01
     Exponent=  1.5410752281D+00 Coefficients=  9.6771136842D-01
 P 1 1.00
     Exponent=  5.8285615250D-01 Coefficients=  1.0000000000D+00
 P 1 1.00
     Exponent=  1.3491500000D-01 Coefficients=  1.0000000000D+00
 D 4 1.00
     Exponent=  6.1996675034D+01 Coefficients=  1.1971972255D-02
     Exponent=  1.7873732552D+01 Coefficients=  7.3210135410D-02
     Exponent=  6.2744782934D+00 Coefficients=  2.3103094314D-01
     Exponent=  2.3552337175D+00 Coefficients=  3.9910706494D-01
 D 1 1.00
     Exponent=  8.5432239901D-01 Coefficients=  4.1391589765D-01
 D 1 1.00
     Exponent=  2.7869254413D-01 Coefficients=  2.1909269782D-01
 D 1 1.00
     Exponent=  9.1000000000D-02 Coefficients=  1.0000000000D+00
 F 1 1.00
     Exponent=  1.5980000000D+00 Coefficients=  1.0000000000D+00
 ****
 Centers:      29     30
 S 6 1.00
     Exponent=  1.9730800647D+04 Coefficients=  2.1887984991D-04
     Exponent=  2.9578958745D+03 Coefficients=  1.6960708803D-03
     Exponent=  6.7322133595D+02 Coefficients=  8.7954603538D-03
     Exponent=  1.9068249494D+02 Coefficients=  3.5359382605D-02
     Exponent=  6.2295441898D+01 Coefficients=  1.1095789217D-01
     Exponent=  2.2654161182D+01 Coefficients=  2.4982972552D-01
 S 2 1.00
     Exponent=  8.9791477428D+00 Coefficients=  4.0623896148D-01
     Exponent=  3.6863002370D+00 Coefficients=  2.4338217176D-01
 S 1 1.00
     Exponent=  8.4660076805D-01 Coefficients=  1.0000000000D+00
 S 1 1.00
     Exponent=  3.3647133771D-01 Coefficients=  1.0000000000D+00
 S 1 1.00
     Exponent=  1.3647653675D-01 Coefficients=  1.0000000000D+00
 P 4 1.00
     Exponent=  4.9200380510D+01 Coefficients=  5.5552416751D-03
     Exponent=  1.1346790537D+01 Coefficients=  3.8052379723D-02
     Exponent=  3.4273972411D+00 Coefficients=  1.4953671029D-01
     Exponent=  1.1785525134D+00 Coefficients=  3.4949305230D-01
 P 1 1.00
     Exponent=  4.1642204972D-01 Coefficients=  4.5843153697D-01
 P 1 1.00
     Exponent=  1.4260826011D-01 Coefficients=  2.4428771672D-01
 D 1 1.00
     Exponent=  1.6540000000D+00 Coefficients=  1.0000000000D+00
 D 1 1.00
     Exponent=  4.6900000000D-01 Coefficients=  1.0000000000D+00
 F 1 1.00
     Exponent=  1.0930000000D+00 Coefficients=  1.0000000000D+00
 ****
 Ernie: Thresh=  0.10000D-02 Tol=  0.10000D-05 Strict=F.
   939 basis functions,  1610 primitive gaussians,  1080 cartesian basis functions
   140 alpha electrons      126 beta electrons
       nuclear repulsion energy      5036.8795859334 Hartrees.
 IExCor= 4134 DFT=T Ex+Corr=M06L ExCW=0 ScaHFX=  0.000000
 ScaDFX=  1.000000  1.000000  1.000000  1.000000 ScalE2=  1.000000  1.000000
 IRadAn=      5 IRanWt=     -1 IRanGd=            0 ICorTp=0 IEmpDi=  4
 NAtoms=   37 NActive=   37 NUniq=   37 SFac= 1.00D+00 NAtFMM=   60 NAOKFM=F Big=F
 Integral buffers will be    131072 words long.
 Raffenetti 2 integral format.
 Two-electron integral symmetry is turned off.
 Leave Link  301 at Fri Feb 24 15:54:05 2023, MaxMem= 14763950080 cpu:               0.1 elap:               1.4
 (Enter /software/commercial/gaussian/g16/AVX2/g16/l302.exe)
 NPDir=0 NMtPBC=     1 NCelOv=     1 NCel=       1 NClECP=     1 NCelD=      1
         NCelK=      1 NCelE2=     1 NClLst=     1 CellRange=     0.0.
 One-electron integrals computed using PRISM.
 NBasis=   939 RedAO= T EigKep=  2.35D-04  NBF=   939
 NBsUse=   939 1.00D-06 EigRej= -1.00D+00 NBFU=   939
 Precomputing XC quadrature grid using
 IXCGrd= 4 IRadAn=           5 IRanWt=          -1 IRanGd=           0 AccXCQ= 0.00D+00.
 Generated NRdTot=       0 NPtTot=           0 NUsed=           0 NTot=          32
 NSgBfM=  1056  1056  1056  1056  1056 MxSgAt=    37 MxSgA2=    37.
 Leave Link  302 at Fri Feb 24 15:54:12 2023, MaxMem= 14763950080 cpu:               3.3 elap:               5.3
 (Enter /software/commercial/gaussian/g16/AVX2/g16/l303.exe)
 DipDrv:  MaxL=1.
 Leave Link  303 at Fri Feb 24 15:54:16 2023, MaxMem= 14763950080 cpu:               0.2 elap:               1.6
 (Enter /software/commercial/gaussian/g16/AVX2/g16/l401.exe)
 ExpMin= 4.20D-02 ExpMax= 3.01D+05 ExpMxC= 2.91D+03 IAcc=3 IRadAn=         5 AccDes= 0.00D+00
 Harris functional with IExCor= 1009 and IRadAn=       5 diagonalized for initial guess.
 HarFok:  IExCor= 1009 AccDes= 0.00D+00 IRadAn=         5 IDoV= 1 UseB2=F ITyADJ=14
 ICtDFT=  3500011 ScaDFX=  1.000000  1.000000  1.000000  1.000000
 FoFCou: FMM=F IPFlag=           0 FMFlag=      100000 FMFlg1=           0
         NFxFlg=           0 DoJE=T BraDBF=F KetDBF=T FulRan=T
         wScrn=  0.000000 ICntrl=       500 IOpCl=  0 I1Cent=   200000004 NGrid=           0
         NMat0=    1 NMatS0=      1 NMatT0=    0 NMatD0=    1 NMtDS0=    0 NMtDT0=    0
 Symmetry not used in FoFCou.
 Harris En= -5337.34021100293    
 JPrj=0 DoOrth=F DoCkMO=F.
 Initial guess <Sx>= 0.0000 <Sy>= 0.0000 <Sz>= 7.0000 <S**2>=56.0000 S= 7.0000
 Leave Link  401 at Fri Feb 24 15:54:41 2023, MaxMem= 14763950080 cpu:              35.5 elap:              25.0
 (Enter /software/commercial/gaussian/g16/AVX2/g16/l502.exe)
 Two-electron integral symmetry not used.
 UHF open shell SCF:
 Using DIIS extrapolation, IDIIS=  1040.
 NGot= 14763950080 LenX= 14761603162 LenY= 14760435682
 Requested convergence on RMS density matrix=1.00D-08 within 150 cycles.
 Requested convergence on MAX density matrix=1.00D-06.
 Requested convergence on             energy=1.00D-06.
 No special actions if energy rises.
 Fock matrices will be formed incrementally for  20 cycles.

 Cycle   1  Pass 1  IDiag  1:
 FoFJK:  IHMeth= 1 ICntrl=     500 DoSepK=F KAlg= 0 I1Cent=           0 FoldK=F
 IRaf= 750000000 NMat=       1 IRICut=       1 DoRegI=T DoRafI=F ISym2E= 0 IDoP0=0 IntGTp=1.
 FoFCou: FMM=F IPFlag=           0 FMFlag=      100000 FMFlg1=           0
         NFxFlg=           0 DoJE=T BraDBF=F KetDBF=F FulRan=T
         wScrn=  0.000000 ICntrl=       500 IOpCl=  0 I1Cent=           0 NGrid=           0
         NMat0=    1 NMatS0=      1 NMatT0=    0 NMatD0=    1 NMtDS0=    0 NMtDT0=    0
 Symmetry not used in FoFCou.
 E= -5337.94432647562    
 DIIS: error= 4.37D-02 at cycle   1 NSaved=   1.
 NSaved= 1 IEnMin= 1 EnMin= -5337.94432647562     IErMin= 1 ErrMin= 4.37D-02
 ErrMax= 4.37D-02  0.00D+00 EMaxC= 1.00D-01 BMatC= 1.25D+01 BMatP= 1.25D+01
 IDIUse=3 WtCom= 5.63D-01 WtEn= 4.37D-01
 Coeff-Com:  0.100D+01
 Coeff-En:   0.100D+01
 Coeff:      0.100D+01
 Gap=    -0.367 Goal=   None    Shift=    0.000
 Gap=    -0.408 Goal=   None    Shift=    0.000
 GapD=   -0.408 DampG=0.250 DampE=0.250 DampFc=0.1250 IDamp=-1.
 Damping current iteration by 1.25D-01
 RMSDP=4.19D-03 MaxDP=1.45D+00              OVMax= 9.74D-01

 Cycle   2  Pass 1  IDiag  1:
 RMSU=  5.24D-04    CP:  9.97D-01
 E= -5338.49897474732     Delta-E=       -0.554648271696 Rises=F Damp=T
 DIIS: error= 1.92D-02 at cycle   2 NSaved=   2.
 NSaved= 2 IEnMin= 2 EnMin= -5338.49897474732     IErMin= 2 ErrMin= 1.92D-02
 ErrMax= 1.92D-02  0.00D+00 EMaxC= 1.00D-01 BMatC= 3.19D+00 BMatP= 1.25D+01
 IDIUse=3 WtCom= 8.08D-01 WtEn= 1.92D-01
 Coeff-Com: -0.412D+00 0.141D+01
 Coeff-En:   0.184D+00 0.816D+00
 Coeff:     -0.298D+00 0.130D+01
 Gap=     0.065 Goal=   None    Shift=    0.000
 Gap=    -0.406 Goal=   None    Shift=    0.000
 RMSDP=2.62D-03 MaxDP=1.71D-01 DE=-5.55D-01 OVMax= 9.76D-01

 Cycle   3  Pass 1  IDiag  1:
 RMSU=  2.60D-03    CP:  9.76D-01  6.11D-01
 E= -5322.61328252668     Delta-E=       15.885692220636 Rises=F Damp=F
 DIIS: error= 1.48D-01 at cycle   3 NSaved=   3.
 NSaved= 3 IEnMin= 2 EnMin= -5338.49897474732     IErMin= 2 ErrMin= 1.92D-02
 ErrMax= 1.48D-01  0.00D+00 EMaxC= 1.00D-01 BMatC= 5.13D+01 BMatP= 3.19D+00
 IDIUse=2 WtCom= 0.00D+00 WtEn= 1.00D+00
 EnCoef did     9 forward-backward iterations
 Coeff-En:   0.112D+00 0.854D+00 0.335D-01
 Coeff:      0.112D+00 0.854D+00 0.335D-01
 Gap=     0.115 Goal=   None    Shift=    0.000
 Gap=     0.127 Goal=   None    Shift=    0.000
 RMSDP=2.85D-03 MaxDP=3.72D-01 DE= 1.59D+01 OVMax= 9.21D-01

 Cycle   4  Pass 1  IDiag  1:
 RMSU=  1.76D-03    CP:  9.78D-01  2.65D+00  2.42D-01
 E= -5326.98306852927     Delta-E=       -4.369786002586 Rises=F Damp=F
 DIIS: error= 1.84D-01 at cycle   4 NSaved=   4.
 NSaved= 4 IEnMin= 2 EnMin= -5338.49897474732     IErMin= 2 ErrMin= 1.92D-02
 ErrMax= 1.84D-01  0.00D+00 EMaxC= 1.00D-01 BMatC= 8.38D+01 BMatP= 3.19D+00
 IDIUse=2 WtCom= 0.00D+00 WtEn= 1.00D+00
 EnCoef did   100 forward-backward iterations
 Coeff-En:   0.749D+00 0.335D-01 0.371D-02 0.213D+00
 Coeff:      0.749D+00 0.335D-01 0.371D-02 0.213D+00
 Gap=     0.102 Goal=   None    Shift=    0.000
 Gap=     0.050 Goal=   None    Shift=    0.000
 RMSDP=2.08D-03 MaxDP=3.77D-01 DE=-4.37D+00 OVMax= 8.34D-01

 Cycle   5  Pass 1  IDiag  1:
 RMSU=  1.56D-03    CP:  9.86D-01  1.71D+00  1.67D-01  2.83D-01
 E= -5333.08892802479     Delta-E=       -6.105859495525 Rises=F Damp=F
 DIIS: error= 1.89D-01 at cycle   5 NSaved=   5.
 NSaved= 5 IEnMin= 2 EnMin= -5338.49897474732     IErMin= 2 ErrMin= 1.92D-02
 ErrMax= 1.89D-01  0.00D+00 EMaxC= 1.00D-01 BMatC= 4.44D+01 BMatP= 3.19D+00
 IDIUse=2 WtCom= 0.00D+00 WtEn= 1.00D+00
 EnCoef did   100 forward-backward iterations
 Coeff-En:   0.691D+00 0.123D-01 0.136D-02 0.183D+00 0.113D+00
 Coeff:      0.691D+00 0.123D-01 0.136D-02 0.183D+00 0.113D+00
 Gap=     0.149 Goal=   None    Shift=    0.000
 Gap=     0.005 Goal=   None    Shift=    0.000
 RMSDP=1.60D-03 MaxDP=3.85D-01 DE=-6.11D+00 OVMax= 9.97D-01

 Cycle   6  Pass 1  IDiag  1:
 RMSU=  1.09D-03    CP:  9.89D-01  1.26D+00  1.34D-01  4.06D-01  2.81D-01
 E= -5338.38468958336     Delta-E=       -5.295761558569 Rises=F Damp=F
 DIIS: error= 4.30D-02 at cycle   6 NSaved=   6.
 NSaved= 6 IEnMin= 2 EnMin= -5338.49897474732     IErMin= 2 ErrMin= 1.92D-02
 ErrMax= 4.30D-02  0.00D+00 EMaxC= 1.00D-01 BMatC= 6.56D+00 BMatP= 3.19D+00
 IDIUse=2 WtCom= 0.00D+00 WtEn= 1.00D+00
 EnCoef did   100 forward-backward iterations
 Coeff-En:   0.349D+00 0.772D-02 0.201D-04 0.000D+00 0.151D+00 0.493D+00
 Coeff:      0.349D+00 0.772D-02 0.201D-04 0.000D+00 0.151D+00 0.493D+00
 Gap=    -0.040 Goal=   None    Shift=    0.000
 Gap=     0.010 Goal=   None    Shift=    0.000
 RMSDP=1.90D-03 MaxDP=3.65D-01 DE=-5.30D+00 OVMax= 8.98D-01

 Cycle   7  Pass 1  IDiag  1:
 RMSU=  1.39D-03    CP:  9.88D-01  9.62D-01  3.23D-01  2.70D-01  4.08D-01
                    CP: -5.48D-02
 E= -5328.36295579389     Delta-E=       10.021733789474 Rises=F Damp=F
 DIIS: error= 1.12D-01 at cycle   7 NSaved=   7.
 NSaved= 7 IEnMin= 2 EnMin= -5338.49897474732     IErMin= 2 ErrMin= 1.92D-02
 ErrMax= 1.12D-01  0.00D+00 EMaxC= 1.00D-01 BMatC= 4.60D+01 BMatP= 3.19D+00
 IDIUse=2 WtCom= 0.00D+00 WtEn= 1.00D+00
 EnCoef did   100 forward-backward iterations
 Coeff-En:   0.282D+00 0.331D-02 0.862D-05 0.000D+00 0.853D-01 0.547D+00
 Coeff-En:   0.824D-01
 Coeff:      0.282D+00 0.331D-02 0.862D-05 0.000D+00 0.853D-01 0.547D+00
 Coeff:      0.824D-01
 Gap=     0.029 Goal=   None    Shift=    0.000
 Gap=    -0.076 Goal=   None    Shift=    0.000
 RMSDP=1.57D-03 MaxDP=3.00D-01 DE= 1.00D+01 OVMax= 8.78D-01

 Cycle   8  Pass 1  IDiag  1:
 RMSU=  7.94D-04    CP:  9.93D-01  9.89D-01  1.17D-01  2.61D-01  5.09D-01
                    CP:  7.33D-02  1.22D-01
 E= -5338.49481503477     Delta-E=      -10.131859240884 Rises=F Damp=F
 DIIS: error= 7.86D-02 at cycle   8 NSaved=   8.
 NSaved= 8 IEnMin= 2 EnMin= -5338.49897474732     IErMin= 2 ErrMin= 1.92D-02
 ErrMax= 7.86D-02  0.00D+00 EMaxC= 1.00D-01 BMatC= 7.01D+00 BMatP= 3.19D+00
 IDIUse=2 WtCom= 0.00D+00 WtEn= 1.00D+00
 EnCoef did   100 forward-backward iterations
 Coeff-En:   0.111D+00 0.000D+00 0.484D-02 0.000D+00 0.000D+00 0.449D+00
 Coeff-En:   0.000D+00 0.436D+00
 Coeff:      0.111D+00 0.000D+00 0.484D-02 0.000D+00 0.000D+00 0.449D+00
 Coeff:      0.000D+00 0.436D+00
 Gap=    -0.159 Goal=   None    Shift=    0.000
 Gap=     0.040 Goal=   None    Shift=    0.000
 RMSDP=1.26D-03 MaxDP=1.64D-01 DE=-1.01D+01 OVMax= 7.13D-01

 Cycle   9  Pass 1  IDiag  1:
 RMSU=  8.33D-04    CP:  9.97D-01  5.64D-01  2.07D-01  1.38D-01  1.17D-01
                    CP:  2.61D-01  7.31D-02  2.93D-01
 E= -5338.63959805322     Delta-E=       -0.144783018448 Rises=F Damp=F
 DIIS: error= 2.34D-02 at cycle   9 NSaved=   9.
 NSaved= 9 IEnMin= 9 EnMin= -5338.63959805322     IErMin= 2 ErrMin= 1.92D-02
 ErrMax= 2.34D-02  0.00D+00 EMaxC= 1.00D-01 BMatC= 3.79D+00 BMatP= 3.19D+00
 IDIUse=2 WtCom= 0.00D+00 WtEn= 1.00D+00
 EnCoef did     4 forward-backward iterations
 Coeff-En:   0.000D+00 0.000D+00 0.000D+00 0.000D+00 0.000D+00 0.351D+00
 Coeff-En:   0.000D+00 0.385D+00 0.264D+00
 Coeff:      0.000D+00 0.000D+00 0.000D+00 0.000D+00 0.000D+00 0.351D+00
 Coeff:      0.000D+00 0.385D+00 0.264D+00
 Gap=    -0.001 Goal=   None    Shift=    0.000
 Gap=     0.147 Goal=   None    Shift=    0.000
 RMSDP=1.20D-03 MaxDP=1.60D-01 DE=-1.45D-01 OVMax= 9.98D-01

 Cycle  10  Pass 1  IDiag  1:
 RMSU=  5.22D-04    CP:  9.91D-01  1.13D+00  9.95D-02  3.92D-01  2.67D-01
                    CP:  5.76D-01  8.72D-02  5.92D-01  1.03D-01
 E= -5339.28846946792     Delta-E=       -0.648871414698 Rises=F Damp=F
 DIIS: error= 2.08D-02 at cycle  10 NSaved=  10.
 NSaved=10 IEnMin=10 EnMin= -5339.28846946792     IErMin= 2 ErrMin= 1.92D-02
 ErrMax= 2.08D-02  0.00D+00 EMaxC= 1.00D-01 BMatC= 1.61D+00 BMatP= 3.19D+00
 IDIUse=3 WtCom= 7.92D-01 WtEn= 2.08D-01
 EnCoef did     2 forward-backward iterations
 Coeff-Com: -0.112D+00 0.167D+00 0.146D-01-0.144D-01 0.434D-02 0.109D+00
 Coeff-Com:  0.783D-04 0.197D+00 0.268D+00 0.366D+00
 Coeff-En:   0.000D+00 0.000D+00 0.000D+00 0.000D+00 0.000D+00 0.000D+00
 Coeff-En:   0.000D+00 0.204D+00 0.275D+00 0.521D+00
 Coeff:     -0.886D-01 0.132D+00 0.116D-01-0.114D-01 0.343D-02 0.864D-01
 Coeff:      0.620D-04 0.198D+00 0.270D+00 0.398D+00
 Gap=     0.024 Goal=   None    Shift=    0.000
 Gap=    -0.010 Goal=   None    Shift=    0.000
 RMSDP=8.41D-04 MaxDP=1.49D-01 DE=-6.49D-01 OVMax= 9.91D-01

 Cycle  11  Pass 1  IDiag  1:
 RMSU=  4.14D-04    CP:  9.94D-01  1.01D+00  1.38D-01  2.86D-01  3.98D-01
                    CP:  1.83D-01  3.88D-02  7.54D-01  2.16D-01  7.82D-02
 E= -5339.50491536294     Delta-E=       -0.216445895017 Rises=F Damp=F
 DIIS: error= 2.46D-02 at cycle  11 NSaved=  11.
 NSaved=11 IEnMin=11 EnMin= -5339.50491536294     IErMin= 2 ErrMin= 1.92D-02
 ErrMax= 2.46D-02  0.00D+00 EMaxC= 1.00D-01 BMatC= 1.11D+00 BMatP= 1.61D+00
 IDIUse=3 WtCom= 7.92D-01 WtEn= 2.08D-01
 EnCoef did     5 forward-backward iterations
 Coeff-Com: -0.400D-01 0.555D-01-0.306D-02-0.208D-02 0.321D-02-0.405D-01
 Coeff-Com:  0.379D-02-0.924D-01 0.164D+00 0.403D+00 0.548D+00
 Coeff-En:   0.000D+00 0.000D+00 0.000D+00 0.000D+00 0.000D+00 0.000D+00
 Coeff-En:   0.000D+00 0.000D+00 0.142D+00 0.363D+00 0.495D+00
 Coeff:     -0.316D-01 0.439D-01-0.242D-02-0.164D-02 0.254D-02-0.320D-01
 Coeff:      0.300D-02-0.731D-01 0.160D+00 0.395D+00 0.537D+00
 Gap=     0.004 Goal=   None    Shift=    0.000
 Gap=     0.043 Goal=   None    Shift=    0.000
 RMSDP=4.43D-04 MaxDP=6.78D-02 DE=-2.16D-01 OVMax= 4.75D-01

 Cycle  12  Pass 1  IDiag  1:
 RMSU=  3.06D-04    CP:  9.94D-01  9.69D-01  1.43D-01  2.95D-01  3.04D-01
                    CP:  2.81D-01  2.35D-02  6.28D-01  4.46D-01  3.61D-01
                    CP:  9.95D-01
 E= -5339.66122722558     Delta-E=       -0.156311862644 Rises=F Damp=F
 DIIS: error= 7.46D-03 at cycle  12 NSaved=  12.
 NSaved=12 IEnMin=12 EnMin= -5339.66122722558     IErMin=12 ErrMin= 7.46D-03
 ErrMax= 7.46D-03  0.00D+00 EMaxC= 1.00D-01 BMatC= 1.38D-01 BMatP= 1.11D+00
 IDIUse=3 WtCom= 9.25D-01 WtEn= 7.46D-02
 EnCoef did     4 forward-backward iterations
 Coeff-Com: -0.489D-01 0.611D-01-0.428D-02 0.127D-02 0.426D-03-0.354D-01
 Coeff-Com:  0.321D-02-0.370D-01 0.339D-01 0.197D+00 0.291D+00 0.537D+00
 Coeff-En:   0.000D+00 0.000D+00 0.000D+00 0.000D+00 0.000D+00 0.000D+00
 Coeff-En:   0.000D+00 0.000D+00 0.000D+00 0.104D+00 0.217D+00 0.679D+00
 Coeff:     -0.452D-01 0.566D-01-0.396D-02 0.118D-02 0.395D-03-0.328D-01
 Coeff:      0.297D-02-0.342D-01 0.314D-01 0.190D+00 0.286D+00 0.548D+00
 Gap=     0.046 Goal=   None    Shift=    0.000
 Gap=     0.038 Goal=   None    Shift=    0.000
 RMSDP=2.81D-04 MaxDP=2.06D-02 DE=-1.56D-01 OVMax= 2.55D-01

 Cycle  13  Pass 1  IDiag  1:
 RMSU=  2.08D-04    CP:  9.94D-01  1.01D+00  1.31D-01  2.84D-01  3.38D-01
                    CP:  2.06D-01  3.28D-02  7.04D-01  3.91D-01  2.36D-01
                    CP:  9.69D-01  6.20D-01
 E= -5339.68839257944     Delta-E=       -0.027165353862 Rises=F Damp=F
 DIIS: error= 3.30D-03 at cycle  13 NSaved=  13.
 NSaved=13 IEnMin=13 EnMin= -5339.68839257944     IErMin=13 ErrMin= 3.30D-03
 ErrMax= 3.30D-03  0.00D+00 EMaxC= 1.00D-01 BMatC= 6.18D-02 BMatP= 1.38D-01
 IDIUse=3 WtCom= 9.67D-01 WtEn= 3.30D-02
 EnCoef did     1 forward-backward iterations
 Coeff-Com: -0.299D-01 0.367D-01-0.402D-03 0.160D-02 0.217D-02-0.175D-01
 Coeff-Com: -0.552D-03-0.172D-01-0.640D-02 0.120D+00 0.131D+00 0.424D+00
 Coeff-Com:  0.356D+00
 Coeff-En:   0.000D+00 0.000D+00 0.000D+00 0.000D+00 0.000D+00 0.000D+00
 Coeff-En:   0.000D+00 0.000D+00 0.000D+00 0.104D-01 0.000D+00 0.178D+00
 Coeff-En:   0.812D+00
 Coeff:     -0.289D-01 0.355D-01-0.388D-03 0.155D-02 0.210D-02-0.169D-01
 Coeff:     -0.534D-03-0.166D-01-0.619D-02 0.117D+00 0.126D+00 0.416D+00
 Coeff:      0.371D+00
 Gap=     0.058 Goal=   None    Shift=    0.000
 Gap=     0.046 Goal=   None    Shift=    0.000
 RMSDP=1.15D-04 MaxDP=1.53D-02 DE=-2.72D-02 OVMax= 8.61D-02

 Cycle  14  Pass 1  IDiag  1:
 RMSU=  1.04D-04    CP:  9.94D-01  1.02D+00  1.33D-01  2.85D-01  3.36D-01
                    CP:  2.10D-01  2.59D-02  6.92D-01  4.10D-01  2.40D-01
                    CP:  9.52D-01  7.39D-01  9.00D-01
 E= -5339.69456403328     Delta-E=       -0.006171453842 Rises=F Damp=F
 DIIS: error= 2.76D-03 at cycle  14 NSaved=  14.
 NSaved=14 IEnMin=14 EnMin= -5339.69456403328     IErMin=14 ErrMin= 2.76D-03
 ErrMax= 2.76D-03  0.00D+00 EMaxC= 1.00D-01 BMatC= 3.49D-02 BMatP= 6.18D-02
 IDIUse=3 WtCom= 9.72D-01 WtEn= 2.76D-02
 Coeff-Com: -0.126D-01 0.163D-01 0.702D-03 0.984D-03 0.254D-02 0.317D-02
 Coeff-Com: -0.271D-02-0.552D-02-0.169D-01 0.467D-01-0.700D-02 0.107D+00
 Coeff-Com:  0.420D+00 0.447D+00
 Coeff-En:   0.000D+00 0.000D+00 0.000D+00 0.000D+00 0.000D+00 0.000D+00
 Coeff-En:   0.000D+00 0.000D+00 0.000D+00 0.000D+00 0.000D+00 0.000D+00
 Coeff-En:   0.324D+00 0.676D+00
 Coeff:     -0.123D-01 0.158D-01 0.683D-03 0.957D-03 0.247D-02 0.309D-02
 Coeff:     -0.264D-02-0.537D-02-0.164D-01 0.454D-01-0.681D-02 0.104D+00
 Coeff:      0.417D+00 0.454D+00
 Gap=     0.063 Goal=   None    Shift=    0.000
 Gap=     0.044 Goal=   None    Shift=    0.000
 RMSDP=8.48D-05 MaxDP=1.11D-02 DE=-6.17D-03 OVMax= 6.37D-02

 Cycle  15  Pass 1  IDiag  1:
 RMSU=  6.39D-05    CP:  9.94D-01  1.03D+00  1.33D-01  2.87D-01  3.35D-01
                    CP:  2.16D-01  2.04D-02  6.79D-01  4.32D-01  2.39D-01
                    CP:  9.38D-01  8.01D-01  1.05D+00  6.78D-01
 E= -5339.69894219464     Delta-E=       -0.004378161353 Rises=F Damp=F
 DIIS: error= 1.37D-03 at cycle  15 NSaved=  15.
 NSaved=15 IEnMin=15 EnMin= -5339.69894219464     IErMin=15 ErrMin= 1.37D-03
 ErrMax= 1.37D-03  0.00D+00 EMaxC= 1.00D-01 BMatC= 1.16D-02 BMatP= 3.49D-02
 IDIUse=3 WtCom= 9.86D-01 WtEn= 1.37D-02
 Coeff-Com: -0.109D-01 0.145D-01-0.900D-03-0.629D-03 0.264D-02 0.804D-02
 Coeff-Com: -0.147D-02 0.878D-03 0.790D-03 0.738D-02-0.505D-01-0.143D+00
 Coeff-Com:  0.187D+00 0.440D+00 0.547D+00
 Coeff-En:   0.000D+00 0.000D+00 0.000D+00 0.000D+00 0.000D+00 0.000D+00
 Coeff-En:   0.000D+00 0.000D+00 0.000D+00 0.000D+00 0.000D+00 0.000D+00
 Coeff-En:   0.000D+00 0.232D+00 0.768D+00
 Coeff:     -0.108D-01 0.143D-01-0.888D-03-0.620D-03 0.260D-02 0.793D-02
 Coeff:     -0.145D-02 0.866D-03 0.780D-03 0.728D-02-0.498D-01-0.141D+00
 Coeff:      0.185D+00 0.437D+00 0.550D+00
 Gap=     0.073 Goal=   None    Shift=    0.000
 Gap=     0.037 Goal=   None    Shift=    0.000
 RMSDP=4.60D-05 MaxDP=6.55D-03 DE=-4.38D-03 OVMax= 1.93D-02

 Cycle  16  Pass 1  IDiag  1:
 RMSU=  3.41D-05    CP:  9.94D-01  1.04D+00  1.32D-01  2.85D-01  3.37D-01
                    CP:  2.13D-01  2.10D-02  6.78D-01  4.31D-01  2.30D-01
                    CP:  9.24D-01  7.98D-01  1.14D+00  8.13D-01  7.25D-01
 E= -5339.70107102957     Delta-E=       -0.002128834934 Rises=F Damp=F
 DIIS: error= 1.32D-03 at cycle  16 NSaved=  16.
 NSaved=16 IEnMin=16 EnMin= -5339.70107102957     IErMin=16 ErrMin= 1.32D-03
 ErrMax= 1.32D-03  0.00D+00 EMaxC= 1.00D-01 BMatC= 3.32D-03 BMatP= 1.16D-02
 IDIUse=3 WtCom= 9.87D-01 WtEn= 1.32D-02
 Coeff-Com: -0.593D-02 0.824D-02-0.354D-03-0.636D-03 0.154D-02 0.121D-02
 Coeff-Com: -0.684D-03 0.300D-02-0.102D-02 0.939D-02-0.142D-01-0.115D+00
 Coeff-Com:  0.517D-02 0.154D+00 0.348D+00 0.607D+00
 Coeff-En:   0.000D+00 0.000D+00 0.000D+00 0.000D+00 0.000D+00 0.000D+00
 Coeff-En:   0.000D+00 0.000D+00 0.000D+00 0.000D+00 0.000D+00 0.000D+00
 Coeff-En:   0.000D+00 0.000D+00 0.000D+00 0.100D+01
 Coeff:     -0.585D-02 0.813D-02-0.349D-03-0.628D-03 0.152D-02 0.120D-02
 Coeff:     -0.675D-03 0.296D-02-0.101D-02 0.927D-02-0.140D-01-0.114D+00
 Coeff:      0.510D-02 0.152D+00 0.343D+00 0.613D+00
 Gap=     0.077 Goal=   None    Shift=    0.000
 Gap=     0.034 Goal=   None    Shift=    0.000
 RMSDP=2.24D-05 MaxDP=2.27D-03 DE=-2.13D-03 OVMax= 1.16D-02

 Cycle  17  Pass 1  IDiag  1:
 RMSU=  1.79D-05    CP:  9.94D-01  1.04D+00  1.31D-01  2.85D-01  3.39D-01
                    CP:  2.11D-01  2.03D-02  6.77D-01  4.26D-01  2.22D-01
                    CP:  9.21D-01  7.98D-01  1.17D+00  8.55D-01  8.23D-01
                    CP:  1.01D+00
 E= -5339.70154058016     Delta-E=       -0.000469550592 Rises=F Damp=F
 DIIS: error= 7.82D-04 at cycle  17 NSaved=  17.
 NSaved=17 IEnMin=17 EnMin= -5339.70154058016     IErMin=17 ErrMin= 7.82D-04
 ErrMax= 7.82D-04  0.00D+00 EMaxC= 1.00D-01 BMatC= 1.37D-03 BMatP= 3.32D-03
 IDIUse=3 WtCom= 9.92D-01 WtEn= 7.82D-03
 Coeff-Com: -0.162D-02 0.301D-02-0.201D-03-0.690D-04-0.298D-03-0.212D-02
 Coeff-Com:  0.996D-04 0.262D-02-0.330D-02 0.855D-02 0.165D-01-0.469D-01
 Coeff-Com: -0.668D-01-0.414D-01 0.698D-01 0.533D+00 0.529D+00
 Coeff-En:   0.000D+00 0.000D+00 0.000D+00 0.000D+00 0.000D+00 0.000D+00
 Coeff-En:   0.000D+00 0.000D+00 0.000D+00 0.000D+00 0.000D+00 0.000D+00
 Coeff-En:   0.000D+00 0.000D+00 0.000D+00 0.810D-01 0.919D+00
 Coeff:     -0.161D-02 0.298D-02-0.200D-03-0.684D-04-0.296D-03-0.210D-02
 Coeff:      0.989D-04 0.260D-02-0.327D-02 0.848D-02 0.164D-01-0.466D-01
 Coeff:     -0.663D-01-0.411D-01 0.693D-01 0.529D+00 0.532D+00
 Gap=     0.079 Goal=   None    Shift=    0.000
 Gap=     0.033 Goal=   None    Shift=    0.000
 RMSDP=1.41D-05 MaxDP=1.74D-03 DE=-4.70D-04 OVMax= 4.65D-03

 Cycle  18  Pass 1  IDiag  1:
 RMSU=  1.03D-05    CP:  9.94D-01  1.05D+00  1.30D-01  2.84D-01  3.41D-01
                    CP:  2.10D-01  2.06D-02  6.78D-01  4.23D-01  2.17D-01
                    CP:  9.16D-01  7.96D-01  1.19D+00  8.69D-01  8.76D-01
                    CP:  1.18D+00  8.25D-01
 E= -5339.70179824234     Delta-E=       -0.000257662181 Rises=F Damp=F
 DIIS: error= 3.97D-04 at cycle  18 NSaved=  18.
 NSaved=18 IEnMin=18 EnMin= -5339.70179824234     IErMin=18 ErrMin= 3.97D-04
 ErrMax= 3.97D-04  0.00D+00 EMaxC= 1.00D-01 BMatC= 2.01D-04 BMatP= 1.37D-03
 IDIUse=3 WtCom= 9.96D-01 WtEn= 3.97D-03
 Coeff-Com: -0.122D-02 0.174D-02-0.778D-04 0.670D-04-0.423D-03-0.825D-03
 Coeff-Com:  0.177D-03 0.149D-02-0.217D-02 0.455D-02 0.920D-02-0.109D-01
 Coeff-Com: -0.287D-01-0.375D-01-0.287D-01 0.174D+00 0.321D+00 0.599D+00
 Coeff-En:   0.000D+00 0.000D+00 0.000D+00 0.000D+00 0.000D+00 0.000D+00
 Coeff-En:   0.000D+00 0.000D+00 0.000D+00 0.000D+00 0.000D+00 0.000D+00
 Coeff-En:   0.000D+00 0.000D+00 0.000D+00 0.000D+00 0.000D+00 0.100D+01
 Coeff:     -0.121D-02 0.173D-02-0.775D-04 0.668D-04-0.421D-03-0.822D-03
 Coeff:      0.176D-03 0.149D-02-0.216D-02 0.453D-02 0.917D-02-0.109D-01
 Coeff:     -0.286D-01-0.373D-01-0.286D-01 0.173D+00 0.320D+00 0.600D+00
 Gap=     0.080 Goal=   None    Shift=    0.000
 Gap=     0.032 Goal=   None    Shift=    0.000
 RMSDP=7.78D-06 MaxDP=6.39D-04 DE=-2.58D-04 OVMax= 7.47D-03

 Cycle  19  Pass 1  IDiag  1:
 RMSU=  4.59D-06    CP:  9.94D-01  1.05D+00  1.30D-01  2.84D-01  3.41D-01
                    CP:  2.09D-01  2.08D-02  6.78D-01  4.20D-01  2.13D-01
                    CP:  9.18D-01  7.88D-01  1.19D+00  8.69D-01  8.48D-01
                    CP:  1.24D+00  9.74D-01  9.69D-01
 E= -5339.70182875216     Delta-E=       -0.000030509811 Rises=F Damp=F
 DIIS: error= 1.42D-04 at cycle  19 NSaved=  19.
 NSaved=19 IEnMin=19 EnMin= -5339.70182875216     IErMin=19 ErrMin= 1.42D-04
 ErrMax= 1.42D-04  0.00D+00 EMaxC= 1.00D-01 BMatC= 1.03D-04 BMatP= 2.01D-04
 IDIUse=3 WtCom= 9.99D-01 WtEn= 1.42D-03
 Coeff-Com: -0.759D-03 0.820D-03-0.401D-04 0.578D-04-0.186D-04 0.184D-03
 Coeff-Com: -0.270D-04-0.163D-03-0.508D-03 0.237D-02 0.136D-03-0.129D-02
 Coeff-Com: -0.271D-02-0.937D-02-0.262D-01 0.336D-02 0.947D-01 0.410D+00
 Coeff-Com:  0.529D+00
 Coeff-En:   0.000D+00 0.000D+00 0.000D+00 0.000D+00 0.000D+00 0.000D+00
 Coeff-En:   0.000D+00 0.000D+00 0.000D+00 0.000D+00 0.000D+00 0.000D+00
 Coeff-En:   0.000D+00 0.000D+00 0.000D+00 0.000D+00 0.000D+00 0.200D+00
 Coeff-En:   0.800D+00
 Coeff:     -0.758D-03 0.819D-03-0.401D-04 0.577D-04-0.186D-04 0.184D-03
 Coeff:     -0.270D-04-0.162D-03-0.507D-03 0.237D-02 0.136D-03-0.129D-02
 Coeff:     -0.270D-02-0.935D-02-0.262D-01 0.335D-02 0.946D-01 0.410D+00
 Coeff:      0.529D+00
 Gap=     0.080 Goal=   None    Shift=    0.000
 Gap=     0.032 Goal=   None    Shift=    0.000
 RMSDP=2.91D-06 MaxDP=2.99D-04 DE=-3.05D-05 OVMax= 1.40D-03

 Cycle  20  Pass 1  IDiag  1:
 RMSU=  2.23D-06    CP:  9.95D-01  1.05D+00  1.30D-01  2.84D-01  3.41D-01
                    CP:  2.09D-01  2.09D-02  6.78D-01  4.19D-01  2.13D-01
                    CP:  9.18D-01  7.87D-01  1.19D+00  8.68D-01  8.42D-01
                    CP:  1.26D+00  1.01D+00  1.05D+00  7.69D-01
 E= -5339.70183824049     Delta-E=       -0.000009488336 Rises=F Damp=F
 DIIS: error= 1.10D-04 at cycle  20 NSaved=  20.
 NSaved=20 IEnMin=20 EnMin= -5339.70183824049     IErMin=20 ErrMin= 1.10D-04
 ErrMax= 1.10D-04  0.00D+00 EMaxC= 1.00D-01 BMatC= 5.16D-05 BMatP= 1.03D-04
 IDIUse=3 WtCom= 9.99D-01 WtEn= 1.10D-03
 Coeff-Com: -0.475D-03 0.530D-03-0.126D-04 0.221D-04 0.118D-03 0.273D-03
 Coeff-Com: -0.101D-03-0.417D-03-0.208D-03 0.177D-02-0.197D-02-0.854D-03
 Coeff-Com: -0.230D-02-0.301D-02-0.588D-02-0.193D-02 0.302D-01 0.192D+00
 Coeff-Com:  0.333D+00 0.459D+00
 Coeff-En:   0.000D+00 0.000D+00 0.000D+00 0.000D+00 0.000D+00 0.000D+00
 Coeff-En:   0.000D+00 0.000D+00 0.000D+00 0.000D+00 0.000D+00 0.000D+00
 Coeff-En:   0.000D+00 0.000D+00 0.000D+00 0.000D+00 0.000D+00 0.000D+00
 Coeff-En:   0.000D+00 0.100D+01
 Coeff:     -0.474D-03 0.530D-03-0.126D-04 0.220D-04 0.118D-03 0.273D-03
 Coeff:     -0.101D-03-0.416D-03-0.207D-03 0.177D-02-0.196D-02-0.853D-03
 Coeff:     -0.229D-02-0.301D-02-0.587D-02-0.193D-02 0.302D-01 0.192D+00
 Coeff:      0.332D+00 0.460D+00
 Gap=     0.080 Goal=   None    Shift=    0.000
 Gap=     0.032 Goal=   None    Shift=    0.000
 RMSDP=1.71D-06 MaxDP=1.94D-04 DE=-9.49D-06 OVMax= 9.78D-04

 Cycle  21  Pass 1  IDiag  1:
 Restarting incremental Fock formation.
 E= -5339.70184537754     Delta-E=       -0.000007137045 Rises=F Damp=F
 DIIS: error= 6.86D-05 at cycle  21 NSaved=  20.
 NSaved=20 IEnMin=20 EnMin= -5339.70184537754     IErMin=20 ErrMin= 6.86D-05
 ErrMax= 6.86D-05  0.00D+00 EMaxC= 1.00D-01 BMatC= 1.64D-05 BMatP= 5.16D-05
 IDIUse=1 WtCom= 1.00D+00 WtEn= 0.00D+00
 Coeff-Com: -0.135D-03 0.180D-03-0.186D-04 0.925D-04 0.176D-03-0.749D-04
 Coeff-Com: -0.899D-04-0.903D-04 0.767D-03-0.222D-02 0.531D-03-0.487D-02
 Coeff-Com: -0.176D-02 0.124D-01 0.896D-02-0.177D-01-0.454D-01-0.442D-01
 Coeff-Com:  0.315D+00 0.779D+00
 Coeff:     -0.135D-03 0.180D-03-0.186D-04 0.925D-04 0.176D-03-0.749D-04
 Coeff:     -0.899D-04-0.903D-04 0.767D-03-0.222D-02 0.531D-03-0.487D-02
 Coeff:     -0.176D-02 0.124D-01 0.896D-02-0.177D-01-0.454D-01-0.442D-01
 Coeff:      0.315D+00 0.779D+00
 Gap=     0.080 Goal=   None    Shift=    0.000
 Gap=     0.031 Goal=   None    Shift=    0.000
 RMSDP=1.43D-06 MaxDP=1.76D-04 DE=-7.14D-06 OVMax= 6.69D-04

 Cycle  22  Pass 1  IDiag  1:
 RMSU=  1.43D-06    CP:  1.00D+00
 E= -5339.70184813139     Delta-E=       -0.000002753855 Rises=F Damp=F
 DIIS: error= 2.26D-05 at cycle  22 NSaved=  20.
 NSaved=20 IEnMin=20 EnMin= -5339.70184813139     IErMin=20 ErrMin= 2.26D-05
 ErrMax= 2.26D-05  0.00D+00 EMaxC= 1.00D-01 BMatC= 2.67D-06 BMatP= 1.64D-05
 IDIUse=1 WtCom= 1.00D+00 WtEn= 0.00D+00
 Coeff-Com:  0.491D-04-0.717D-05 0.134D-04 0.342D-04-0.251D-04 0.516D-04
 Coeff-Com: -0.575D-04 0.166D-03-0.752D-03 0.534D-03-0.401D-02-0.125D-02
 Coeff-Com:  0.106D-01 0.928D-02-0.186D-01-0.732D-01-0.135D+00 0.370D-01
 Coeff-Com:  0.523D+00 0.652D+00
 Coeff:      0.491D-04-0.717D-05 0.134D-04 0.342D-04-0.251D-04 0.516D-04
 Coeff:     -0.575D-04 0.166D-03-0.752D-03 0.534D-03-0.401D-02-0.125D-02
 Coeff:      0.106D-01 0.928D-02-0.186D-01-0.732D-01-0.135D+00 0.370D-01
 Coeff:      0.523D+00 0.652D+00
 Gap=     0.080 Goal=   None    Shift=    0.000
 Gap=     0.031 Goal=   None    Shift=    0.000
 RMSDP=7.30D-07 MaxDP=4.80D-05 DE=-2.75D-06 OVMax= 2.83D-04

 Cycle  23  Pass 1  IDiag  1:
 RMSU=  6.96D-07    CP:  1.00D+00  1.15D+00
 E= -5339.70184857421     Delta-E=       -0.000000442820 Rises=F Damp=F
 DIIS: error= 1.04D-05 at cycle  23 NSaved=  20.
 NSaved=20 IEnMin=20 EnMin= -5339.70184857421     IErMin=20 ErrMin= 1.04D-05
 ErrMax= 1.04D-05  0.00D+00 EMaxC= 1.00D-01 BMatC= 4.86D-07 BMatP= 2.67D-06
 IDIUse=1 WtCom= 1.00D+00 WtEn= 0.00D+00
 Coeff-Com:  0.718D-04-0.730D-04-0.104D-04-0.353D-06 0.257D-04-0.285D-04
 Coeff-Com:  0.723D-04-0.122D-03 0.894D-04-0.215D-02-0.414D-03 0.584D-02
 Coeff-Com:  0.603D-02-0.105D-01-0.430D-01-0.899D-01-0.288D-01 0.229D+00
 Coeff-Com:  0.454D+00 0.480D+00
 Coeff:      0.718D-04-0.730D-04-0.104D-04-0.353D-06 0.257D-04-0.285D-04
 Coeff:      0.723D-04-0.122D-03 0.894D-04-0.215D-02-0.414D-03 0.584D-02
 Coeff:      0.603D-02-0.105D-01-0.430D-01-0.899D-01-0.288D-01 0.229D+00
 Coeff:      0.454D+00 0.480D+00
 Gap=     0.080 Goal=   None    Shift=    0.000
 Gap=     0.031 Goal=   None    Shift=    0.000
 RMSDP=2.89D-07 MaxDP=2.56D-05 DE=-4.43D-07 OVMax= 1.14D-04

 Cycle  24  Pass 1  IDiag  1:
 RMSU=  2.60D-07    CP:  1.00D+00  1.24D+00  9.42D-01
 E= -5339.70184865754     Delta-E=       -0.000000083324 Rises=F Damp=F
 DIIS: error= 3.19D-06 at cycle  24 NSaved=  20.
 NSaved=20 IEnMin=20 EnMin= -5339.70184865754     IErMin=20 ErrMin= 3.19D-06
 ErrMax= 3.19D-06  0.00D+00 EMaxC= 1.00D-01 BMatC= 8.73D-08 BMatP= 4.86D-07
 IDIUse=1 WtCom= 1.00D+00 WtEn= 0.00D+00
 Coeff-Com:  0.197D-04-0.367D-04-0.646D-05-0.537D-06 0.168D-04 0.435D-04
 Coeff-Com: -0.559D-04-0.113D-03-0.608D-03 0.220D-03 0.229D-02 0.232D-02
 Coeff-Com: -0.460D-02-0.158D-01-0.341D-01-0.178D-01 0.596D-01 0.170D+00
 Coeff-Com:  0.329D+00 0.509D+00
 Coeff:      0.197D-04-0.367D-04-0.646D-05-0.537D-06 0.168D-04 0.435D-04
 Coeff:     -0.559D-04-0.113D-03-0.608D-03 0.220D-03 0.229D-02 0.232D-02
 Coeff:     -0.460D-02-0.158D-01-0.341D-01-0.178D-01 0.596D-01 0.170D+00
 Coeff:      0.329D+00 0.509D+00
 Gap=     0.080 Goal=   None    Shift=    0.000
 Gap=     0.031 Goal=   None    Shift=    0.000
 RMSDP=1.42D-07 MaxDP=1.17D-05 DE=-8.33D-08 OVMax= 3.87D-05

 Cycle  25  Pass 1  IDiag  1:
 RMSU=  1.37D-07    CP:  1.00D+00  1.25D+00  9.70D-01  8.91D-01
 E= -5339.70184867403     Delta-E=       -0.000000016491 Rises=F Damp=F
 DIIS: error= 2.22D-06 at cycle  25 NSaved=  20.
 NSaved=20 IEnMin=20 EnMin= -5339.70184867403     IErMin=20 ErrMin= 2.22D-06
 ErrMax= 2.22D-06  0.00D+00 EMaxC= 1.00D-01 BMatC= 1.90D-08 BMatP= 8.73D-08
 IDIUse=1 WtCom= 1.00D+00 WtEn= 0.00D+00
 Coeff-Com: -0.407D-05-0.880D-05-0.251D-06 0.111D-04-0.225D-05 0.424D-04
 Coeff-Com:  0.507D-04 0.718D-04-0.329D-04-0.414D-03 0.207D-03-0.273D-03
 Coeff-Com: -0.359D-03-0.328D-02-0.728D-02-0.146D-01 0.853D-02 0.101D+00
 Coeff-Com:  0.323D+00 0.593D+00
 Coeff:     -0.407D-05-0.880D-05-0.251D-06 0.111D-04-0.225D-05 0.424D-04
 Coeff:      0.507D-04 0.718D-04-0.329D-04-0.414D-03 0.207D-03-0.273D-03
 Coeff:     -0.359D-03-0.328D-02-0.728D-02-0.146D-01 0.853D-02 0.101D+00
 Coeff:      0.323D+00 0.593D+00
 Gap=     0.080 Goal=   None    Shift=    0.000
 Gap=     0.031 Goal=   None    Shift=    0.000
 RMSDP=8.47D-08 MaxDP=7.98D-06 DE=-1.65D-08 OVMax= 3.91D-05

 Cycle  26  Pass 1  IDiag  1:
 RMSU=  6.81D-08    CP:  1.00D+00  1.27D+00  1.00D+00  9.90D-01  9.90D-01
 E= -5339.70184867862     Delta-E=       -0.000000004597 Rises=F Damp=F
 DIIS: error= 8.75D-07 at cycle  26 NSaved=  20.
 NSaved=20 IEnMin=20 EnMin= -5339.70184867862     IErMin=20 ErrMin= 8.75D-07
 ErrMax= 8.75D-07  0.00D+00 EMaxC= 1.00D-01 BMatC= 5.77D-09 BMatP= 1.90D-08
 IDIUse=1 WtCom= 1.00D+00 WtEn= 0.00D+00
 Coeff-Com:  0.466D-05-0.209D-05 0.492D-06-0.182D-04 0.559D-04 0.898D-04
 Coeff-Com:  0.252D-03-0.804D-04-0.924D-03-0.487D-03 0.926D-03 0.397D-02
 Coeff-Com:  0.694D-02 0.789D-04-0.266D-01-0.414D-01-0.122D-01 0.923D-01
 Coeff-Com:  0.377D+00 0.600D+00
 Coeff:      0.466D-05-0.209D-05 0.492D-06-0.182D-04 0.559D-04 0.898D-04
 Coeff:      0.252D-03-0.804D-04-0.924D-03-0.487D-03 0.926D-03 0.397D-02
 Coeff:      0.694D-02 0.789D-04-0.266D-01-0.414D-01-0.122D-01 0.923D-01
 Coeff:      0.377D+00 0.600D+00
 Gap=     0.080 Goal=   None    Shift=    0.000
 Gap=     0.031 Goal=   None    Shift=    0.000
 RMSDP=5.10D-08 MaxDP=4.97D-06 DE=-4.60D-09 OVMax= 2.48D-05

 Cycle  27  Pass 1  IDiag  1:
 RMSU=  4.06D-08    CP:  1.00D+00  1.28D+00  1.03D+00  1.03D+00  1.10D+00
                    CP:  1.04D+00
 E= -5339.70184868006     Delta-E=       -0.000000001439 Rises=F Damp=F
 DIIS: error= 1.15D-06 at cycle  27 NSaved=  20.
 NSaved=20 IEnMin=20 EnMin= -5339.70184868006     IErMin=19 ErrMin= 8.75D-07
 ErrMax= 1.15D-06  0.00D+00 EMaxC= 1.00D-01 BMatC= 1.96D-09 BMatP= 5.77D-09
 IDIUse=1 WtCom= 1.00D+00 WtEn= 0.00D+00
 Coeff-Com:  0.113D-05-0.204D-06-0.131D-04 0.359D-04 0.562D-04 0.121D-03
 Coeff-Com: -0.790D-04-0.511D-03-0.292D-03 0.715D-03 0.264D-02 0.555D-02
 Coeff-Com:  0.277D-02-0.133D-01-0.343D-01-0.442D-01-0.434D-01 0.541D-01
 Coeff-Com:  0.414D+00 0.656D+00
 Coeff:      0.113D-05-0.204D-06-0.131D-04 0.359D-04 0.562D-04 0.121D-03
 Coeff:     -0.790D-04-0.511D-03-0.292D-03 0.715D-03 0.264D-02 0.555D-02
 Coeff:      0.277D-02-0.133D-01-0.343D-01-0.442D-01-0.434D-01 0.541D-01
 Coeff:      0.414D+00 0.656D+00
 Gap=     0.080 Goal=   None    Shift=    0.000
 Gap=     0.031 Goal=   None    Shift=    0.000
 RMSDP=3.58D-08 MaxDP=4.24D-06 DE=-1.44D-09 OVMax= 1.74D-05

 Cycle  28  Pass 1  IDiag  1:
 RMSU=  2.20D-08    CP:  1.00D+00  1.29D+00  1.05D+00  1.08D+00  1.18D+00
                    CP:  1.27D+00  1.11D+00
 E= -5339.70184868070     Delta-E=       -0.000000000637 Rises=F Damp=F
 DIIS: error= 4.13D-07 at cycle  28 NSaved=  20.
 NSaved=20 IEnMin=20 EnMin= -5339.70184868070     IErMin=20 ErrMin= 4.13D-07
 ErrMax= 4.13D-07  0.00D+00 EMaxC= 1.00D-01 BMatC= 1.04D-09 BMatP= 1.96D-09
 IDIUse=1 WtCom= 1.00D+00 WtEn= 0.00D+00
 Coeff-Com:  0.891D-06-0.737D-05 0.693D-05 0.206D-04 0.613D-05-0.315D-04
 Coeff-Com: -0.681D-04-0.958D-04 0.777D-04 0.333D-03 0.161D-02 0.298D-02
 Coeff-Com:  0.302D-03-0.128D-01-0.319D-01-0.650D-01-0.716D-01 0.149D+00
 Coeff-Com:  0.518D+00 0.509D+00
 Coeff:      0.891D-06-0.737D-05 0.693D-05 0.206D-04 0.613D-05-0.315D-04
 Coeff:     -0.681D-04-0.958D-04 0.777D-04 0.333D-03 0.161D-02 0.298D-02
 Coeff:      0.302D-03-0.128D-01-0.319D-01-0.650D-01-0.716D-01 0.149D+00
 Coeff:      0.518D+00 0.509D+00
 Gap=     0.080 Goal=   None    Shift=    0.000
 Gap=     0.031 Goal=   None    Shift=    0.000
 RMSDP=1.98D-08 MaxDP=2.30D-06 DE=-6.37D-10 OVMax= 9.70D-06

 Cycle  29  Pass 1  IDiag  1:
 RMSU=  1.29D-08    CP:  1.00D+00  1.29D+00  1.06D+00  1.11D+00  1.24D+00
                    CP:  1.35D+00  1.27D+00  8.32D-01
 E= -5339.70184868089     Delta-E=       -0.000000000187 Rises=F Damp=F
 DIIS: error= 3.51D-07 at cycle  29 NSaved=  20.
 NSaved=20 IEnMin=20 EnMin= -5339.70184868089     IErMin=20 ErrMin= 3.51D-07
 ErrMax= 3.51D-07  0.00D+00 EMaxC= 1.00D-01 BMatC= 3.75D-10 BMatP= 1.04D-09
 IDIUse=1 WtCom= 1.00D+00 WtEn= 0.00D+00
 Coeff-Com: -0.299D-05-0.666D-05 0.335D-05-0.255D-04 0.226D-05 0.880D-04
 Coeff-Com: -0.872D-05-0.197D-03-0.572D-03-0.512D-03 0.180D-02 0.511D-02
 Coeff-Com:  0.161D-02-0.104D-01-0.372D-01-0.704D-01-0.141D-01 0.157D+00
 Coeff-Com:  0.347D+00 0.621D+00
 Coeff:     -0.299D-05-0.666D-05 0.335D-05-0.255D-04 0.226D-05 0.880D-04
 Coeff:     -0.872D-05-0.197D-03-0.572D-03-0.512D-03 0.180D-02 0.511D-02
 Coeff:      0.161D-02-0.104D-01-0.372D-01-0.704D-01-0.141D-01 0.157D+00
 Coeff:      0.347D+00 0.621D+00
 Gap=     0.080 Goal=   None    Shift=    0.000
 Gap=     0.031 Goal=   None    Shift=    0.000
 RMSDP=1.02D-08 MaxDP=1.18D-06 DE=-1.87D-10 OVMax= 4.25D-06

 Cycle  30  Pass 1  IDiag  1:
 RMSU=  6.19D-09    CP:  1.00D+00  1.29D+00  1.06D+00  1.11D+00  1.27D+00
                    CP:  1.43D+00  1.34D+00  9.61D-01  9.97D-01
 E= -5339.70184868086     Delta-E=        0.000000000024 Rises=F Damp=F
 DIIS: error= 1.72D-07 at cycle  30 NSaved=  20.
 NSaved=20 IEnMin=19 EnMin= -5339.70184868089     IErMin=20 ErrMin= 1.72D-07
 ErrMax= 1.72D-07  0.00D+00 EMaxC= 1.00D-01 BMatC= 1.23D-10 BMatP= 3.75D-10
 IDIUse=1 WtCom= 1.00D+00 WtEn= 0.00D+00
 Coeff-Com: -0.265D-05 0.261D-05-0.466D-05 0.853D-05 0.345D-04-0.429D-04
 Coeff-Com: -0.116D-03-0.218D-03-0.230D-03 0.777D-03 0.258D-02 0.220D-02
 Coeff-Com: -0.249D-02-0.149D-01-0.361D-01-0.329D-01 0.157D-01 0.153D+00
 Coeff-Com:  0.448D+00 0.465D+00
 Coeff:     -0.265D-05 0.261D-05-0.466D-05 0.853D-05 0.345D-04-0.429D-04
 Coeff:     -0.116D-03-0.218D-03-0.230D-03 0.777D-03 0.258D-02 0.220D-02
 Coeff:     -0.249D-02-0.149D-01-0.361D-01-0.329D-01 0.157D-01 0.153D+00
 Coeff:      0.448D+00 0.465D+00
 Gap=     0.080 Goal=   None    Shift=    0.000
 Gap=     0.031 Goal=   None    Shift=    0.000
 RMSDP=4.93D-09 MaxDP=5.05D-07 DE= 2.36D-11 OVMax= 2.51D-06

 SCF Done:  E(UM06L) =  -5339.70184868     A.U. after   30 cycles
            NFock= 30  Conv=0.49D-08     -V/T= 2.0017
 <Sx>= 0.0000 <Sy>= 0.0000 <Sz>= 7.0000 <S**2>=56.7081 S= 7.0471
 <L.S>=  0.00000000000    
 KE= 5.330668519909D+03 PE=-2.274613854309D+04 EE= 7.038888588563D+03
 Annihilation of the first spin contaminant:
 S**2 before annihilation    56.7081,   after    56.0059
 Leave Link  502 at Fri Feb 24 17:47:30 2023, MaxMem= 14763950080 cpu:           13042.8 elap:            6767.2
 (Enter /software/commercial/gaussian/g16/AVX2/g16/l508.exe)
 QCSCF skips out because SCF is already converged.
 Leave Link  508 at Fri Feb 24 17:47:32 2023, MaxMem= 14763950080 cpu:               0.0 elap:               0.4
 (Enter /software/commercial/gaussian/g16/AVX2/g16/l601.exe)
 Copying SCF densities to generalized density rwf, IOpCl= 1 IROHF=0.

 **********************************************************************

            Population analysis using the SCF Density.

 **********************************************************************

 Alpha  occ. eigenvalues -- -255.64483-255.64419-255.62408 -30.09537 -30.09474
 Alpha  occ. eigenvalues --  -30.07145 -25.86657 -25.86613 -25.86569 -25.86496
[...]
            NFock= 11  Conv=0.36D-08     -V/T= 2.0033
 <Sx>= 0.0000 <Sy>= 0.0000 <Sz>= 0.0000 <S**2>= 0.0000 S= 0.0000
 <L.S>=  0.00000000000    
 KE= 7.619292865044D+01 PE=-1.991458439467D+02 EE= 3.741167297330D+01
 Annihilation of the first spin contaminant:
 S**2 before annihilation     0.0000,   after     0.0000
 Leave Link  502 at Fri Feb 24 23:12:07 2023, MaxMem= 14763950080 cpu:               4.3 elap:              12.0
 (Enter /software/commercial/gaussian/g16/AVX2/g16/l508.exe)
 QCSCF skips out because SCF is already converged.
 Leave Link  508 at Fri Feb 24 23:12:10 2023, MaxMem= 14763950080 cpu:               0.1 elap:               1.8
 (Enter /software/commercial/gaussian/g16/AVX2/g16/l601.exe)
 Copying SCF densities to generalized density rwf, IOpCl= 1 IROHF=0.

 **********************************************************************

            Population analysis using the SCF Density.

 **********************************************************************

 Alpha  occ. eigenvalues --  -18.96274  -0.98080  -0.48799  -0.34833  -0.26792
 Alpha virt. eigenvalues --    0.03232   0.09737   0.35045   0.39596   0.43662
 Alpha virt. eigenvalues --    0.44027   0.56427   0.57258   1.16133   1.19074
 Alpha virt. eigenvalues --    1.30017   1.52835   1.64869   1.76958   2.01324
 Alpha virt. eigenvalues --    2.09349   2.12700   2.32279   2.41549   2.62891
 Alpha virt. eigenvalues --    2.65125   2.69123   2.84287   3.73566   4.01058
 Alpha virt. eigenvalues --    5.23028   5.32952   5.50671   5.52343   5.57732
 Alpha virt. eigenvalues --    6.13196   6.32447   6.42820   6.48859   6.55107
 Alpha virt. eigenvalues --    7.04872   7.14417  43.44123
  Beta  occ. eigenvalues --  -18.96274  -0.98080  -0.48799  -0.34833  -0.26792
  Beta virt. eigenvalues --    0.03232   0.09737   0.35045   0.39596   0.43662
  Beta virt. eigenvalues --    0.44027   0.56427   0.57258   1.16133   1.19074
  Beta virt. eigenvalues --    1.30017   1.52835   1.64869   1.76958   2.01324
  Beta virt. eigenvalues --    2.09349   2.12700   2.32279   2.41549   2.62891
  Beta virt. eigenvalues --    2.65125   2.69123   2.84287   3.73566   4.01058
  Beta virt. eigenvalues --    5.23028   5.32952   5.50671   5.52343   5.57732
  Beta virt. eigenvalues --    6.13196   6.32447   6.42820   6.48859   6.55107
  Beta virt. eigenvalues --    7.04872   7.14417  43.44123
          Condensed to atoms (all electrons):
              35         36         37
    35  O    8.057698   0.289077   0.288814
    36  H    0.289077   0.410404  -0.017204
    37  H    0.288814  -0.017204   0.410524
          Atomic-Atomic Spin Densities.
              35         36         37
    35  O    0.000000   0.000000   0.000000
    36  H    0.000000   0.000000   0.000000
    37  H    0.000000   0.000000   0.000000
 Mulliken charges and spin densities:
               1          2
     1  O    0.000000   0.000000
     2  O    0.000000   0.000000
     3  C    0.000000   0.000000
     4  H    0.000000   0.000000
     5  O    0.000000   0.000000
     6  O    0.000000   0.000000
     7  C    0.000000   0.000000
     8  H    0.000000   0.000000
     9  O    0.000000   0.000000
    10  O    0.000000   0.000000
    11  O    0.000000   0.000000
    12  C    0.000000   0.000000
    13  H    0.000000   0.000000
    14  O    0.000000   0.000000
    15  O    0.000000   0.000000
    16  C    0.000000   0.000000
    17  H    0.000000   0.000000
    18  Fe   0.000000   0.000000
    19  O    0.000000   0.000000
    20  Fe   0.000000   0.000000
    21  O    0.000000   0.000000
    22  O    0.000000   0.000000
    23  Fe   0.000000   0.000000
    24  O    0.000000   0.000000
    25  C    0.000000   0.000000
    26  H    0.000000   0.000000
    27  C    0.000000   0.000000
    28  H    0.000000   0.000000
    29  N    0.000000   0.000000
    30  N    0.000000   0.000000
    31  O    0.000000   0.000000
    32  O    0.000000   0.000000
    33  H    0.000000   0.000000
    34  H    0.000000   0.000000
    35  O   -0.635588   0.000000
    36  H    0.317723   0.000000
    37  H    0.317865   0.000000
 Sum of Mulliken charges =   0.00000   0.00000
 Mulliken charges and spin densities with hydrogens summed into heavy atoms:
               1          2
     1  O    0.000000   0.000000
     2  O    0.000000   0.000000
     3  C    0.000000   0.000000
     5  O    0.000000   0.000000
     6  O    0.000000   0.000000
     7  C    0.000000   0.000000
     9  O    0.000000   0.000000
    10  O    0.000000   0.000000
    11  O    0.000000   0.000000
    12  C    0.000000   0.000000
    14  O    0.000000   0.000000
    15  O    0.000000   0.000000
    16  C    0.000000   0.000000
    18  Fe   0.000000   0.000000
    19  O    0.000000   0.000000
    20  Fe   0.000000   0.000000
    21  O    0.000000   0.000000
    22  O    0.000000   0.000000
    23  Fe   0.000000   0.000000
    24  O    0.000000   0.000000
    25  C    0.000000   0.000000
    27  C    0.000000   0.000000
    29  N    0.000000   0.000000
    30  N    0.000000   0.000000
    31  O    0.000000   0.000000
    32  O    0.000000   0.000000
    35  O    0.000000   0.000000
         Mulliken charges and spin densities condensed to fragments:
      1      0.000000      0.000000
      2      0.000000      0.000000
      3      0.000000      0.000000
      4      0.000000      0.000000
 Electronic spatial extent (au):  <R**2>=           1592.4652
 Charge=              0.0000 electrons
 Dipole moment (field-independent basis, Debye):
    X=             -1.7575    Y=              1.0006    Z=             -0.1961  Tot=              2.0319
 Quadrupole moment (field-independent basis, Debye-Ang):
   XX=             12.1977   YY=            -15.0383   ZZ=             -4.6090
   XY=              1.0430   XZ=             -0.5622   YZ=              1.4732
 Traceless Quadrupole moment (field-independent basis, Debye-Ang):
   XX=             14.6809   YY=            -12.5551   ZZ=             -2.1258
   XY=              1.0430   XZ=             -0.5622   YZ=              1.4732
 Octapole moment (field-independent basis, Debye-Ang**2):
  XXX=            -46.7316  YYY=            131.5361  ZZZ=            -10.6714  XYY=             56.6906
  XXY=            -13.5905  XXZ=              6.6550  XZZ=             21.9445  YZZ=             19.2528
  YYZ=            -14.1144  XYZ=             -1.9865
 Hexadecapole moment (field-independent basis, Debye-Ang**3):
 XXXX=            -25.2521 YYYY=           -923.6181 ZZZZ=            -22.8183 XXXY=            -17.1604
 XXXZ=            -30.0484 YYYX=           -613.0218 YYYZ=            110.5282 ZZZX=             52.8873
 ZZZY=             43.7049 XXYY=           -282.3449 XXZZ=           -108.6805 YYZZ=            -86.6658
 XXYZ=             -1.1272 YYXZ=             53.5732 ZZXY=            -92.8857
 N-N= 9.098071697598D+00 E-N=-1.991458438965D+02  KE= 7.619292865044D+01
 There are a total of       66422 grid points.
 ElSum from          density=        9.9999999968
 ElSum from atomic densities=        9.9999999838
 Hirshfeld populations at iteration   1 (CA, CB, DipXYZ):
               1          2          3          4          5
     1  O    0.000000   0.000000   0.000000   0.000000   0.000000
     2  O    0.000000   0.000000   0.000000   0.000000   0.000000
     3  C    0.000000   0.000000   0.000000   0.000000   0.000000
     4  H    0.000000   0.000000   0.000000   0.000000   0.000000
     5  O    0.000000   0.000000   0.000000   0.000000   0.000000
     6  O    0.000000   0.000000   0.000000   0.000000   0.000000
     7  C    0.000000   0.000000   0.000000   0.000000   0.000000
     8  H    0.000000   0.000000   0.000000   0.000000   0.000000
     9  O    0.000000   0.000000   0.000000   0.000000   0.000000
    10  O    0.000000   0.000000   0.000000   0.000000   0.000000
    11  O    0.000000   0.000000   0.000000   0.000000   0.000000
    12  C    0.000000   0.000000   0.000000   0.000000   0.000000
    13  H    0.000000   0.000000   0.000000   0.000000   0.000000
    14  O    0.000000   0.000000   0.000000   0.000000   0.000000
    15  O    0.000000   0.000000   0.000000   0.000000   0.000000
    16  C    0.000000   0.000000   0.000000   0.000000   0.000000
    17  H    0.000000   0.000000   0.000000   0.000000   0.000000
    18  Fe   0.000000   0.000000   0.000000   0.000000   0.000000
    19  O    0.000000   0.000000   0.000000   0.000000   0.000000
    20  Fe   0.000000   0.000000   0.000000   0.000000   0.000000
    21  O    0.000000   0.000000   0.000000   0.000000   0.000000
    22  O    0.000000   0.000000   0.000000   0.000000   0.000000
    23  Fe   0.000000   0.000000   0.000000   0.000000   0.000000
    24  O    0.000000   0.000000   0.000000   0.000000   0.000000
    25  C    0.000000   0.000000   0.000000   0.000000   0.000000
    26  H    0.000000   0.000000   0.000000   0.000000   0.000000
    27  C    0.000000   0.000000   0.000000   0.000000   0.000000
    28  H    0.000000   0.000000   0.000000   0.000000   0.000000
    29  N    0.000000   0.000000   0.000000   0.000000   0.000000
    30  N    0.000000   0.000000   0.000000   0.000000   0.000000
    31  O    0.000000   0.000000   0.000000   0.000000   0.000000
    32  O    0.000000   0.000000   0.000000   0.000000   0.000000
    33  H    0.000000   0.000000   0.000000   0.000000   0.000000
    34  H    0.000000   0.000000   0.000000   0.000000   0.000000
    35  O    4.154433   4.154433  -0.147193   0.083822  -0.016724
    36  H    0.422841   0.422841  -0.101728   0.069885  -0.193345
    37  H    0.422726   0.422726  -0.142402   0.069119   0.165902
       Tot   5.000000   5.000000  -0.391323   0.222826  -0.044167

 Dip from Atomic Chgs             -0.300144   0.170845  -0.032982
         Total Dipole             -0.691467   0.393671  -0.077149

 Hirshfeld charges, spin densities, dipoles, and CM5 charges using IRadAn=      5:
              Q-H        S-H        Dx         Dy         Dz        Q-CM5   
     1  O    0.000000   0.000000   0.000000   0.000000   0.000000   0.000000
     2  O    0.000000   0.000000   0.000000   0.000000   0.000000   0.000000
     3  C    0.000000   0.000000   0.000000   0.000000   0.000000   0.000000
     4  H    0.000000   0.000000   0.000000   0.000000   0.000000   0.000000
     5  O    0.000000   0.000000   0.000000   0.000000   0.000000   0.000000
     6  O    0.000000   0.000000   0.000000   0.000000   0.000000   0.000000
     7  C    0.000000   0.000000   0.000000   0.000000   0.000000   0.000000
     8  H    0.000000   0.000000   0.000000   0.000000   0.000000   0.000000
     9  O    0.000000   0.000000   0.000000   0.000000   0.000000   0.000000
    10  O    0.000000   0.000000   0.000000   0.000000   0.000000   0.000000
    11  O    0.000000   0.000000   0.000000   0.000000   0.000000   0.000000
    12  C    0.000000   0.000000   0.000000   0.000000   0.000000   0.000000
    13  H    0.000000   0.000000   0.000000   0.000000   0.000000   0.000000
    14  O    0.000000   0.000000   0.000000   0.000000   0.000000   0.000000
    15  O    0.000000   0.000000   0.000000   0.000000   0.000000   0.000000
    16  C    0.000000   0.000000   0.000000   0.000000   0.000000   0.000000
    17  H    0.000000   0.000000   0.000000   0.000000   0.000000   0.000000
    18  Fe   0.000000   0.000000   0.000000   0.000000   0.000000   0.000000
    19  O    0.000000   0.000000   0.000000   0.000000   0.000000   0.000000
    20  Fe   0.000000   0.000000   0.000000   0.000000   0.000000   0.000000
    21  O    0.000000   0.000000   0.000000   0.000000   0.000000   0.000000
    22  O    0.000000   0.000000   0.000000   0.000000   0.000000   0.000000
    23  Fe   0.000000   0.000000   0.000000   0.000000   0.000000   0.000000
    24  O    0.000000   0.000000   0.000000   0.000000   0.000000   0.000000
    25  C    0.000000   0.000000   0.000000   0.000000   0.000000   0.000000
    26  H    0.000000   0.000000   0.000000   0.000000   0.000000   0.000000
    27  C    0.000000   0.000000   0.000000   0.000000   0.000000   0.000000
    28  H    0.000000   0.000000   0.000000   0.000000   0.000000   0.000000
    29  N    0.000000   0.000000   0.000000   0.000000   0.000000   0.000000
    30  N    0.000000   0.000000   0.000000   0.000000   0.000000   0.000000
    31  O    0.000000   0.000000   0.000000   0.000000   0.000000   0.000000
    32  O    0.000000   0.000000   0.000000   0.000000   0.000000   0.000000
    33  H    0.000000   0.000000   0.000000   0.000000   0.000000   0.000000
    34  H    0.000000   0.000000   0.000000   0.000000   0.000000   0.000000
    35  O   -0.308867   0.000000  -0.147193   0.083822  -0.016724  -0.636942
    36  H    0.154319   0.000000  -0.101728   0.069885  -0.193345   0.318623
    37  H    0.154548   0.000000  -0.142402   0.069119   0.165902   0.318318
       Tot   0.000000   0.000000  -0.391323   0.222826  -0.044167   0.000000
 Hirshfeld charges and spin densities with hydrogens summed into heavy atoms:
              Q-H        S-H       Q-CM5   
     1  O    0.000000   0.000000   0.000000
     2  O    0.000000   0.000000   0.000000
     3  C    0.000000   0.000000   0.000000
     5  O    0.000000   0.000000   0.000000
     6  O    0.000000   0.000000   0.000000
     7  C    0.000000   0.000000   0.000000
     9  O    0.000000   0.000000   0.000000
    10  O    0.000000   0.000000   0.000000
    11  O    0.000000   0.000000   0.000000
    12  C    0.000000   0.000000   0.000000
    14  O    0.000000   0.000000   0.000000
    15  O    0.000000   0.000000   0.000000
    16  C    0.000000   0.000000   0.000000
    18  Fe   0.000000   0.000000   0.000000
    19  O    0.000000   0.000000   0.000000
    20  Fe   0.000000   0.000000   0.000000
    21  O    0.000000   0.000000   0.000000
    22  O    0.000000   0.000000   0.000000
    23  Fe   0.000000   0.000000   0.000000
    24  O    0.000000   0.000000   0.000000
    25  C    0.000000   0.000000   0.000000
    27  C    0.000000   0.000000   0.000000
    29  N    0.000000   0.000000   0.000000
    30  N    0.000000   0.000000   0.000000
    31  O    0.000000   0.000000   0.000000
    32  O    0.000000   0.000000   0.000000
    35  O    0.000000   0.000000   0.000000
         Hirshfeld charges and spin densities condensed to fragments:
      1      0.000000      0.000000
      2      0.000000      0.000000
      3      0.000000      0.000000
      4      0.000000      0.000000
 
 EQQ=  0.00000000000     EQD=  0.00000000000     EDD= 0.733060084011E-02
 EQQ+QD+DD= 0.733060084011E-02
 
                          Isotropic Fermi Contact Couplings
        Atom                 a.u.       MegaHertz       Gauss      10(-4) cm-1
    35  O(17)              0.00000      -0.00000      -0.00000      -0.00000
    36  H(1)               0.00000       0.00000       0.00000       0.00000
    37  H(1)               0.00000       0.00000       0.00000       0.00000
 --------------------------------------------------------
       Center         ----  Spin Dipole Couplings  ----
                      3XX-RR        3YY-RR        3ZZ-RR
 --------------------------------------------------------
    35   Atom        0.000000      0.000000      0.000000
    36   Atom        0.000000      0.000000      0.000000
    37   Atom        0.000000      0.000000      0.000000
 --------------------------------------------------------
                        XY            XZ            YZ
 --------------------------------------------------------
    35   Atom        0.000000      0.000000      0.000000
    36   Atom        0.000000      0.000000      0.000000
    37   Atom        0.000000      0.000000      0.000000
 --------------------------------------------------------


 ---------------------------------------------------------------------------------
              Anisotropic Spin Dipole Couplings in Principal Axis System
 ---------------------------------------------------------------------------------

       Atom             a.u.   MegaHertz   Gauss  10(-4) cm-1        Axes

              Baa     0.0000    -0.000    -0.000    -0.000  1.0000  0.0000  0.0000
    35 O(17)  Bbb     0.0000    -0.000    -0.000    -0.000 -0.0000  1.0000  0.0000
              Bcc     0.0000    -0.000    -0.000    -0.000  0.0000  0.0000  1.0000
 
              Baa     0.0000     0.000     0.000     0.000  1.0000  0.0000  0.0000
    36 H(1)   Bbb     0.0000     0.000     0.000     0.000 -0.0000  1.0000  0.0000
              Bcc     0.0000     0.000     0.000     0.000  0.0000  0.0000  1.0000
 
              Baa     0.0000     0.000     0.000     0.000  1.0000  0.0000  0.0000
    37 H(1)   Bbb     0.0000     0.000     0.000     0.000 -0.0000  1.0000  0.0000
              Bcc     0.0000     0.000     0.000     0.000  0.0000  0.0000  1.0000
 

 ---------------------------------------------------------------------------------

 No NMR shielding tensors so no spin-rotation constants.
 Leave Link  601 at Fri Feb 24 23:12:15 2023, MaxMem= 14763950080 cpu:               0.4 elap:               2.4
 (Enter /software/commercial/gaussian/g16/AVX2/g16/l122.exe)
 CPIOFr:  IOpCl= 1 IRwI=-1 IRwCP=  731 ICalc=  8 LCPTot=     1335953 Len1MO=     4428746 IndFrg=    41194667
 Restoring MOs from calculation   1 to rwf.
 CPIOFr:  IOpCl= 1 IRwI=-2 IRwCP=  731 ICalc=  0 LCPTot=     1335953 Len1MO=     4428746 IndFrg=     5764699
 Counterpoise corrected energy =   -5339.695970916026
                   BSSE energy =       0.005877764837
              sum of fragments =   -5339.661520996676
           complexation energy =     -25.31 kcal/mole (raw)
           complexation energy =     -21.62 kcal/mole (corrected)
 Leave Link  122 at Fri Feb 24 23:12:17 2023, MaxMem= 14763950080 cpu:               0.1 elap:               1.2
 (Enter /software/commercial/gaussian/g16/AVX2/g16/l9999.exe)
 Unable to Open any file for archive entry.
 1\1\GINC-NODE0231\SP\UM06L\Gen\C6H10Fe3N2O16(15)\SVICCHI\24-Feb-2023\0
 \\#p gen um06l int=grid=ultrafine scf=(xqc,intrep,maxconventionalcycle
 =150) pop=(hirshfeld) nosymm counterpoise=4\\FeFeFe-AO-2xH2O\\0,15\O,0
 ,-0.015971,-0.011356,-0.00816\O,0,-0.002755,0.033407,2.244547\C,0,0.53
 5489,0.003318,1.125827\H,0,1.639227,-0.0053,1.109411\O,0,-4.93603,-1.6
 2016,-0.461565\O,0,-3.893019,0.228798,-1.202088\C,0,-4.87807,-0.530449
 ,-1.078641\H,0,-5.808546,-0.204103,-1.57832\O,0,-1.36926,-2.202915,3.4
 54614\O,0,-1.747692,-1.643688,-1.603509\O,0,-2.70062,-3.363439,-0.5059
 95\C,0,-2.021999,-2.854252,-1.423761\H,0,-1.615595,-3.557003,-2.172076
 \O,0,-2.489633,1.662385,2.465694\O,0,-2.210245,1.902768,0.243711\C,0,-
 2.485849,2.308307,1.406431\H,0,-2.756422,3.376441,1.477499\Fe,0,-1.866
 029,-0.203898,3.096539\O,0,-3.813187,-0.608186,3.739529\Fe,0,-3.663668
 ,-2.405126,1.024432\O,0,-5.103888,-1.841374,2.368726\O,0,-2.80693,-3.5
 64779,2.379048\Fe,0,-1.978507,0.010023,-0.362796\O,0,-2.543821,-0.9119
 5,1.166884\C,0,-4.880192,-1.133753,3.391904\H,0,-5.75381,-0.975873,4.0
 49575\C,0,-1.855208,-3.306646,3.170634\H,0,-1.415171,-4.190532,3.66504
 1\N,0,-2.048481,-0.151719,6.014099\N,0,-1.858258,0.043795,7.10992\O,0,
 -1.32018,0.388405,4.73829\O,0,-1.504337,0.949053,-2.312157\H,0,-1.4303
 21,0.180934,-2.894136\H,0,-2.335735,1.377613,-2.553213\O,0,-5.20909,-3
 .990029,0.781006\H,0,-5.637031,-3.695906,-0.03453\H,0,-5.809486,-3.698
 737,1.482404\\Version=ES64L-G16RevC.02\HF=-76.4431706\S2=0.\S2-1=0.\S2
 A=0.\RMSD=3.644e-09\Dipole=-1.4874581,-0.4721968,-2.4268897\Quadrupole
 =18.5786775,-3.3057613,-15.2729162,3.741991,6.0456654,-2.549297\PG=C01
  [X(C6H10Fe3N2O16)]\\@
 The archive entry for this job was punched.


 Time has a wonderful way of weeding out the trivial.
                                -- Richard Ben Sapir
 Job cpu time:       0 days 13 hours 46 minutes 14.3 seconds.
 Elapsed time:       0 days  7 hours 16 minutes 32.0 seconds.
 File lengths (MBytes):  RWF=   1224 Int=      0 D2E=      0 Chk=    370 Scr=      1
 Normal termination of Gaussian 16 at Fri Feb 24 23:12:29 2023.
