 Entering Gaussian System, Link 0=g16
 Input=FeFeFe-B-1xH2O-broken-V03-opt.gjf
 Output=FeFeFe-B-1xH2O-broken-V03-opt.log
 Initial command:
 /software/commercial/gaussian/g16/AVX2/g16/l1.exe "/scratch1/svicchi/G09-403631.pbs02/Gau-980716.inp" -scrdir="/scratch1/svicchi/G09-403631.pbs02/"
 Entering Link 1 = /software/commercial/gaussian/g16/AVX2/g16/l1.exe PID=    980719.
  
 Copyright (c) 1988-2021, Gaussian, Inc.  All Rights Reserved.
  
 This is part of the Gaussian(R) 16 program.  It is based on
 the Gaussian(R) 09 system (copyright 2009, Gaussian, Inc.),
 the Gaussian(R) 03 system (copyright 2003, Gaussian, Inc.),
 the Gaussian(R) 98 system (copyright 1998, Gaussian, Inc.),
 the Gaussian(R) 94 system (copyright 1995, Gaussian, Inc.),
 the Gaussian 92(TM) system (copyright 1992, Gaussian, Inc.),
 the Gaussian 90(TM) system (copyright 1990, Gaussian, Inc.),
 the Gaussian 88(TM) system (copyright 1988, Gaussian, Inc.),
 the Gaussian 86(TM) system (copyright 1986, Carnegie Mellon
 University), and the Gaussian 82(TM) system (copyright 1983,
 Carnegie Mellon University). Gaussian is a federally registered
 trademark of Gaussian, Inc.
  
 This software contains proprietary and confidential information,
 including trade secrets, belonging to Gaussian, Inc.
  
 This software is provided under written license and may be
 used, copied, transmitted, or stored only in accord with that
 written license.
  
 The following legend is applicable only to US Government
 contracts under FAR:
  
                    RESTRICTED RIGHTS LEGEND
  
 Use, reproduction and disclosure by the US Government is
 subject to restrictions as set forth in subparagraphs (a)
 and (c) of the Commercial Computer Software - Restricted
 Rights clause in FAR 52.227-19.
  
 Gaussian, Inc.
 340 Quinnipiac St., Bldg. 40, Wallingford CT 06492
  
  
 ---------------------------------------------------------------
 Warning -- This program may not be used in any manner that
 competes with the business of Gaussian, Inc. or will provide
 assistance to any competitor of Gaussian, Inc.  The licensee
 of this program is prohibited from giving any competitor of
 Gaussian, Inc. access to this program.  By using this program,
 the user acknowledges that Gaussian, Inc. is engaged in the
 business of creating and licensing software in the field of
 computational chemistry and represents and warrants to the
 licensee that it is not a competitor of Gaussian, Inc. and that
 it will not use this program in any manner prohibited above.
 ---------------------------------------------------------------
  

 Cite this work as:
 Gaussian 16, Revision C.02,
 M. J. Frisch, G. W. Trucks, H. B. Schlegel, G. E. Scuseria, 
 M. A. Robb, J. R. Cheeseman, G. Scalmani, V. Barone, 
 G. A. Petersson, H. Nakatsuji, X. Li, M. Caricato, A. V. Marenich, 
 J. Bloino, B. G. Janesko, R. Gomperts, B. Mennucci, H. P. Hratchian, 
 J. V. Ortiz, A. F. Izmaylov, J. L. Sonnenberg, D. Williams-Young, 
 F. Ding, F. Lipparini, F. Egidi, J. Goings, B. Peng, A. Petrone, 
 T. Henderson, D. Ranasinghe, V. G. Zakrzewski, J. Gao, N. Rega, 
 G. Zheng, W. Liang, M. Hada, M. Ehara, K. Toyota, R. Fukuda, 
 J. Hasegawa, M. Ishida, T. Nakajima, Y. Honda, O. Kitao, H. Nakai, 
 T. Vreven, K. Throssell, J. A. Montgomery, Jr., J. E. Peralta, 
 F. Ogliaro, M. J. Bearpark, J. J. Heyd, E. N. Brothers, K. N. Kudin, 
 V. N. Staroverov, T. A. Keith, R. Kobayashi, J. Normand, 
 K. Raghavachari, A. P. Rendell, J. C. Burant, S. S. Iyengar, 
 J. Tomasi, M. Cossi, J. M. Millam, M. Klene, C. Adamo, R. Cammi, 
 J. W. Ochterski, R. L. Martin, K. Morokuma, O. Farkas, 
 J. B. Foresman, and D. J. Fox, Gaussian, Inc., Wallingford CT, 2019.
 
 ******************************************
 Gaussian 16:  ES64L-G16RevC.02  7-Dec-2021
                 3-Apr-2023 
 ******************************************
 %NProcShared=2
 Will use up to    2 processors via shared memory.
 %mem=110gb
 %chk=/scratch1/svicchi/G09-403631.pbs02/00-opt/FeFeFe-B-1xH2O-broken-V03-opt.chk
 ----------------------------------------------------------------------
 # SP Geom=AllCheckpoint um06l/Def2TZVP int=grid=ultrafine scf=(xqc,int
 rep,maxconventionalcycle=1000) pop=(CM5) nosymm guess=read
 ----------------------------------------------------------------------
 1/29=7,38=1,172=1/1;
 2/12=2,15=1,40=1/2;
 3/5=44,7=101,11=2,14=-4,25=1,30=1,74=-53,75=-5,116=2/1,2,3;
 4/5=1/1;
 5/5=2,8=3,13=1,17=20,38=6,85=1000/2,8;
 6/7=2,8=2,9=2,10=2,28=1,79=1/1;
 99/5=1,9=1/99;
 Structure from the checkpoint file:  "/scratch1/svicchi/G09-403631.pbs02/00-opt/FeFeFe-B-1xH2O-broken-V03-opt.chk"
 --------------
 FeFeFe-B-0xH2O
 --------------
 Charge =  0 Multiplicity = 5
 Z-Matrix found in chk file.
 O,0,1.719299,-2.121416,-1.58716
 O,0,-0.476982,-2.495739,-1.214444
 C,0,0.60347,-2.691674,-1.787175
 H,0,0.618079,-3.461158,-2.578246
 O,0,1.890722,2.147768,1.159944
 O,0,3.038791,0.210968,1.172216
 C,0,2.821748,1.395867,1.523514
 H,0,3.545289,1.819699,2.240758
 O,0,-2.147334,-0.106827,-1.496866
 O,0,2.700282,0.475697,-1.566819
 O,0,1.361445,2.282339,-1.619333
 C,0,2.316544,1.573004,-2.021967
 H,0,2.885238,1.969427,-2.880717
 O,0,-0.561258,-2.092988,1.707679
 O,0,1.641641,-2.191137,1.219534
 C,0,0.614516,-2.444745,1.906501
 H,0,0.788877,-3.066072,2.801842
 Fe,0,-1.413309,-1.139251,0.109271
 O,0,-2.200113,0.271216,1.46108
 Fe,0,0.12895,1.914114,0.013878
 O,0,-0.904099,2.104849,1.697957
 O,0,-1.463991,2.017276,-1.149819
 Fe,0,1.890613,-0.775712,-0.159116
 O,0,0.227856,0.017067,-0.01878
 C,0,-1.839186,1.314437,2.023374
 H,0,-2.401164,1.612984,2.925989
 C,0,-2.107622,1.108608,-1.747308
 H,0,-2.717752,1.449683,-2.600897
 N,0,-5.545114,-0.10034,0.508588
 N,0,-4.982586,0.627297,-0.085807
 O,0,-2.746357,-2.050465,0.200371
 O,0,0.260095,4.095051,0.066221
 H,0,0.863019,4.302013,-0.66014
 H,0,0.748892,4.292809,0.875454
 Recover connectivity data from disk.
                          Input orientation:                          
 ---------------------------------------------------------------------
 Center     Atomic      Atomic             Coordinates (Angstroms)
 Number     Number       Type             X           Y           Z
 ---------------------------------------------------------------------
      1          8           0        1.719299   -2.121416   -1.587160
      2          8           0       -0.476982   -2.495739   -1.214444
      3          6           0        0.603470   -2.691674   -1.787175
      4          1           0        0.618079   -3.461158   -2.578246
      5          8           0        1.890722    2.147768    1.159944
      6          8           0        3.038791    0.210968    1.172216
      7          6           0        2.821748    1.395867    1.523514
      8          1           0        3.545289    1.819699    2.240758
      9          8           0       -2.147334   -0.106827   -1.496866
     10          8           0        2.700282    0.475697   -1.566819
     11          8           0        1.361445    2.282339   -1.619333
     12          6           0        2.316544    1.573004   -2.021967
     13          1           0        2.885238    1.969427   -2.880717
     14          8           0       -0.561258   -2.092988    1.707679
     15          8           0        1.641641   -2.191137    1.219534
     16          6           0        0.614516   -2.444745    1.906501
     17          1           0        0.788877   -3.066072    2.801842
     18         26           0       -1.413309   -1.139251    0.109271
     19          8           0       -2.200113    0.271216    1.461080
     20         26           0        0.128950    1.914114    0.013878
     21          8           0       -0.904099    2.104849    1.697957
     22          8           0       -1.463991    2.017276   -1.149819
     23         26           0        1.890613   -0.775712   -0.159116
     24          8           0        0.227856    0.017067   -0.018780
     25          6           0       -1.839186    1.314437    2.023374
     26          1           0       -2.401164    1.612984    2.925989
     27          6           0       -2.107622    1.108608   -1.747308
     28          1           0       -2.717752    1.449683   -2.600897
     29          7           0       -5.545114   -0.100340    0.508588
     30          7           0       -4.982586    0.627297   -0.085807
     31          8           0       -2.746357   -2.050465    0.200371
     32          8           0        0.260095    4.095051    0.066221
     33          1           0        0.863019    4.302013   -0.660140
     34          1           0        0.748892    4.292809    0.875454
 ---------------------------------------------------------------------
                    Distance matrix (angstroms):
                    1          2          3          4          5
     1  O    0.000000
     2  O    2.258912   0.000000
     3  C    1.268966   1.238462   0.000000
     4  H    1.997460   1.997786   1.103681   0.000000
     5  O    5.079557   5.727643   5.810570   6.859573   0.000000
     6  O    3.846457   5.038161   4.807714   5.780166   2.251534
     7  C    4.823170   5.789873   5.708714   6.728394   1.250739
     8  H    5.789610   6.836672   6.725402   7.725206   2.003342
     9  O    4.360914   2.928607   3.785847   4.479780   5.333642
    10  O    2.776281   4.364471   3.804920   4.566988   3.299461
    11  O    4.418388   5.135541   5.034233   5.870253   2.832424
    12  C    3.767559   5.001055   4.601872   5.342005   3.261324
    13  H    4.446088   5.832555   5.303599   5.892601   4.165070
    14  O    4.007208   2.950951   3.732160   4.651008   4.929121
    15  O    2.808634   3.241234   3.220037   4.133251   4.346457
    16  C    3.678417   3.306700   3.701937   4.598485   4.824648
    17  H    4.584910   4.249498   4.607996   5.397278   5.576201
    18  Fe   3.695370   2.113998   3.173944   4.091520   4.777555
    19  O    5.511646   4.217066   5.214399   6.179723   4.510772
    20  Fe   4.623639   4.617654   4.968123   5.987646   2.114687
    21  O    5.961168   5.461677   6.117642   7.182156   2.846458
    22  O    5.239597   4.620137   5.182164   6.032301   4.075062
    23  Fe   1.969664   3.110903   2.824575   3.831860   3.207281
    24  O    3.042586   2.870645   3.256622   4.336034   2.948627
    25  C    6.124039   5.182326   6.044483   7.072437   3.918184
    26  H    7.161876   6.142253   7.054915   8.072134   4.671744
    27  C    5.010392   3.991773   4.668378   5.385412   5.051606
    28  H    5.785139   4.744434   5.370614   5.936720   5.989097
    29  N    7.826149   5.864532   7.056247   7.668676   7.795506
    30  N    7.397618   5.597110   6.716714   7.368525   7.148852
    31  O    4.810653   2.711094   3.947509   4.585869   6.328384
    32  O    6.596014   6.754398   7.043623   8.013592   2.765336
    33  H    6.546222   6.950704   7.088669   8.000372   3.001608
    34  H    6.938908   7.207970   7.476212   8.489356   2.446612
                    6          7          8          9         10
     6  O    0.000000
     7  C    1.254792   0.000000
     8  H    1.996581   1.103442   0.000000
     9  O    5.841308   6.006044   7.077238   0.000000
    10  O    2.772541   3.226705   4.125290   4.882992   0.000000
    11  O    3.859639   3.577122   4.459093   4.246721   2.249266
    12  C    3.546771   3.585672   4.443140   4.798309   1.248398
    13  H    4.420636   4.441875   5.166003   5.617175   1.997940
    14  O    4.307585   4.863204   5.697106   4.090181   5.287544
    15  O    2.779276   3.788358   4.555610   5.106810   3.999561
    16  C    3.670027   4.446218   5.185233   4.967553   4.994332
    17  H    4.296136   5.067108   5.637675   5.988101   5.939932
    18  Fe   4.772226   5.134454   6.155186   2.045573   4.726411
    19  O    5.247208   5.146632   6.001278   2.982473   5.764014
    20  Fe   3.565057   3.130294   4.079127   3.398238   3.343560
    21  O    4.405629   3.796712   4.491436   4.079711   5.128787
    22  O    5.378628   5.089245   6.052102   2.258144   4.459992
    23  Fe   2.016010   2.900692   3.903012   4.306042   2.050175
    24  O    3.058991   3.317836   4.400040   2.800288   2.952906
    25  C    5.073142   4.688368   5.412496   3.808810   5.848054
    26  H    5.885107   5.412290   5.989372   4.752244   6.892278
    27  C    5.984559   5.922794   6.954547   1.241604   4.852741
    28  H    6.993467   6.906499   7.924911   1.991729   5.601166
    29  N    8.615146   8.559970   9.451052   3.945478   8.522071
    30  N    8.130095   8.005513   8.919606   3.250951   7.825780
    31  O    6.287010   6.680696   7.663299   2.648994   6.258621
    32  O    4.902089   3.996419   4.549543   5.088687   4.660585
    33  H    4.982787   4.129243   4.666012   5.403721   4.340311
    34  H    4.689683   3.620633   3.974942   5.776922   4.933859
                   11         12         13         14         15
    11  O    0.000000
    12  C    1.255979   0.000000
    13  H    2.002735   1.103637   0.000000
    14  O    5.823168   5.969213   7.030998   0.000000
    15  O    5.305626   5.013141   5.972343   2.258469   0.000000
    16  C    5.944302   5.871292   6.896271   1.243265   1.261438
    17  H    6.962767   6.864687   7.876703   1.991720   1.999104
    18  Fe   4.732294   5.080384   6.089451   2.047074   3.416412
    19  O    5.120376   5.850338   6.898979   2.887234   4.569530
    20  Fe   2.078945   3.007755   3.997357   4.404795   4.538163
    21  O    4.021020   4.949064   5.944886   4.211825   5.016490
    22  O    2.876420   3.905184   4.681249   5.086698   5.741909
    23  Fe   3.429858   3.027887   3.991513   3.351389   1.991505
    24  O    2.996373   3.285775   4.366242   2.838255   2.899720
    25  C    4.944713   5.805319   6.841002   3.652849   5.005134
    26  H    5.938452   6.836712   7.860721   4.313208   5.807547
    27  C    3.664485   4.456944   5.191751   4.957660   5.809255
    28  H    4.277456   5.068975   5.633998   5.980369   6.845113
    29  N    7.609584   8.426711   9.318914   5.499753   7.518399
    30  N    6.733320   7.610544   8.456683   5.492239   7.316274
    31  O    6.241678   6.610694   7.574133   2.654890   4.506995
    32  O    2.709241   3.866553   4.482644   6.454520   6.538728
    33  H    2.290756   3.378579   3.802800   6.966432   6.804441
    34  H    3.262081   4.271993   4.906210   6.571719   6.554155
                   16         17         18         19         20
    16  C    0.000000
    17  H    1.103669   0.000000
    18  Fe   3.007727   3.976456   0.000000
    19  O    3.936620   4.676451   2.106149   0.000000
    20  Fe   4.776761   5.745476   3.422090   3.196567   0.000000
    21  O    4.800884   5.551860   3.647931   2.257869   1.984866
    22  O    5.794041   6.821398   3.398756   3.226049   1.975423
    23  Fe   2.946331   3.902159   3.334680   4.522735   3.220023
    24  O    3.149084   4.216207   2.011689   2.854752   1.899904
    25  C    4.490630   5.167358   3.140979   1.238851   2.875977
    26  H    5.157407   5.664392   4.060118   1.996678   3.869438
    27  C    5.778120   6.820002   2.996970   3.317157   2.958525
    28  H    6.825483   7.866262   3.968521   4.261032   3.893129
    29  N    6.737317   7.360300   4.279089   3.497760   6.041338
    30  N    6.688369   7.435676   3.987291   3.203406   5.271967
    31  O    3.789697   4.505218   1.617290   2.697772   4.901026
    32  O    6.803027   7.684069   5.495457   4.756046   2.185503
    33  H    7.222752   8.141222   5.948194   5.489051   2.587512
    34  H    6.817312   7.606951   5.896560   5.021235   2.604771
                   21         22         23         24         25
    21  O    0.000000
    22  O    2.903614   0.000000
    23  Fe   4.422303   4.476119   0.000000
    24  O    2.930417   2.853495   1.847418   0.000000
    25  C    1.266900   3.271683   4.800353   3.182173   0.000000
    26  H    1.997798   4.201661   5.800266   4.257976   1.104384
    27  C    3.782964   1.263698   4.696690   3.103825   3.785824
    28  H    4.711552   1.999926   5.670247   4.170890   4.708933
    29  N    5.274133   4.887758   7.496132   5.798197   4.246183
    30  N    4.690312   3.929971   7.015317   5.246483   3.847307
    31  O    4.785741   4.473700   4.822418   3.628865   3.933048
    32  O    2.824679   2.961144   5.141371   4.078997   3.996154
    33  H    3.675712   3.297694   5.204831   4.378988   4.840327
    34  H    2.862876   3.765187   5.297525   4.399216   4.109327
                   26         27         28         29         30
    26  H    0.000000
    27  C    4.709593   0.000000
    28  H    5.538354   1.103270   0.000000
    29  N    4.320154   4.285671   4.479447   0.000000
    30  N    4.087326   3.355244   3.483026   1.095079   0.000000
    31  O    4.579193   3.765791   4.483186   3.425059   3.500432
    32  O    4.628307   4.220641   4.793648   7.176172   6.287618
    33  H    5.544916   4.494939   4.972348   7.861985   6.928528
    34  H    4.616168   5.017737   5.673271   7.684326   6.870942
                   31         32         33         34
    31  O    0.000000
    32  O    6.842815   0.000000
    33  H    7.356769   0.966411   0.000000
    34  H    7.273900   0.965862   1.539857   0.000000
 Symmetry turned off by external request.
 Stoichiometry    C6H8Fe3N2O15(5)
 Framework group  C1[X(C6H8Fe3N2O15)]
 Deg. of freedom    96
 Full point group                 C1      NOp   1
 Rotational constants (GHZ):           0.2242078           0.1765764           0.1349547
 Standard basis: def2TZVP (5D, 7F)
   896 basis functions,  1543 primitive gaussians,  1032 cartesian basis functions
   130 alpha electrons      126 beta electrons
       nuclear repulsion energy      4757.6078464805 Hartrees.
 NAtoms=   34 NActive=   34 NUniq=   34 SFac= 1.00D+00 NAtFMM=   60 NAOKFM=F Big=F
 Integral buffers will be    131072 words long.
 Raffenetti 2 integral format.
 Two-electron integral symmetry is turned off.
 One-electron integrals computed using PRISM.
   1 Symmetry operations used in ECPInt.
 ECPInt:  NShTT=   54615 NPrTT=  190743 LenC2=   46285 LenP2D=  104760.
 LDataN:  DoStor=T MaxTD1= 6 Len=  172
 NBasis=   896 RedAO= T EigKep=  2.03D-04  NBF=   896
 NBsUse=   896 1.00D-06 EigRej= -1.00D+00 NBFU=   896
 Initial guess from the checkpoint file:  "/scratch1/svicchi/G09-403631.pbs02/00-opt/FeFeFe-B-1xH2O-broken-V03-opt.chk"
 B after Tr=     0.000000    0.000000    0.000000
         Rot=    1.000000    0.000000    0.000000    0.000000 Ang=   0.00 deg.
 Initial guess <Sx>= 0.0000 <Sy>= 0.0000 <Sz>= 2.0000 <S**2>=11.0043 S= 2.8547
 Requested convergence on RMS density matrix=1.00D-08 within1000 cycles.
 Requested convergence on MAX density matrix=1.00D-06.
 Requested convergence on             energy=1.00D-06.
 No special actions if energy rises.
 EnCoef did     2 forward-backward iterations
 EnCoef did     4 forward-backward iterations
 EnCoef did   100 forward-backward iterations
 EnCoef did     3 forward-backward iterations
 EnCoef did   100 forward-backward iterations
 EnCoef did    12 forward-backward iterations
 EnCoef did     6 forward-backward iterations
 EnCoef did   100 forward-backward iterations
 EnCoef did   100 forward-backward iterations
 EnCoef did     6 forward-backward iterations
 EnCoef did     4 forward-backward iterations
 EnCoef did     5 forward-backward iterations
 Restarting incremental Fock formation.
 SCF Done:  E(UM06L) =  -5263.29825059     A.U. after   31 cycles
            NFock= 31  Conv=0.34D-08     -V/T= 2.0017
 <Sx>= 0.0000 <Sy>= 0.0000 <Sz>= 2.0000 <S**2>=10.8874 S= 2.8373
 <L.S>=  0.00000000000    
 Annihilation of the first spin contaminant:
 S**2 before annihilation    10.8874,   after    20.5122
 QCSCF skips out because SCF is already converged.

 **********************************************************************

            Population analysis using the SCF Density.

 **********************************************************************

 Alpha  occ. eigenvalues -- -255.65959-255.64929-255.63340 -30.10938 -30.07357
 Alpha  occ. eigenvalues --  -29.98634 -25.88024 -25.87959 -25.87923 -25.84848
 Alpha  occ. eigenvalues --  -25.84808 -25.84445 -25.78869 -25.78686 -25.78678
 Alpha  occ. eigenvalues --  -19.03665 -18.99612 -18.99495 -18.99483 -18.99257
 Alpha  occ. eigenvalues --  -18.99171 -18.98905 -18.98670 -18.98632 -18.98605
 Alpha  occ. eigenvalues --  -18.98599 -18.98480 -18.97883 -18.97872 -18.97447
 Alpha  occ. eigenvalues --  -14.24647 -14.24504 -10.19487 -10.19442 -10.18532
 Alpha  occ. eigenvalues --  -10.18359 -10.18155 -10.18146  -3.67645  -3.61225
 Alpha  occ. eigenvalues --   -3.42424  -2.41718  -2.41571  -2.41515  -2.36274
 Alpha  occ. eigenvalues --   -2.36087  -2.33952  -2.17250  -2.16628  -2.16607
 Alpha  occ. eigenvalues --   -1.08136  -1.07588  -1.07335  -1.06824  -1.06745
 Alpha  occ. eigenvalues --   -1.06312  -1.05781  -1.05566  -1.00152  -0.99760
 Alpha  occ. eigenvalues --   -0.99639  -0.99119  -0.98932  -0.98538  -0.93353
 Alpha  occ. eigenvalues --   -0.89270  -0.60443  -0.59402  -0.59121  -0.58681
 Alpha  occ. eigenvalues --   -0.58605  -0.57963  -0.55932  -0.50446  -0.50292
 Alpha  occ. eigenvalues --   -0.49727  -0.49264  -0.48871  -0.48411  -0.48253
 Alpha  occ. eigenvalues --   -0.47994  -0.47431  -0.47326  -0.47162  -0.46821
 Alpha  occ. eigenvalues --   -0.46424  -0.46181  -0.44985  -0.43540  -0.43047
 Alpha  occ. eigenvalues --   -0.42859  -0.42232  -0.41753  -0.41459  -0.41397
 Alpha  occ. eigenvalues --   -0.41306  -0.41029  -0.40202  -0.40118  -0.39154
 Alpha  occ. eigenvalues --   -0.38765  -0.38354  -0.38185  -0.36391  -0.36333
 Alpha  occ. eigenvalues --   -0.36080  -0.34360  -0.34027  -0.33760  -0.31968
 Alpha  occ. eigenvalues --   -0.31932  -0.31676  -0.30553  -0.30285  -0.30015
 Alpha  occ. eigenvalues --   -0.29837  -0.29669  -0.29458  -0.29276  -0.28823
 Alpha  occ. eigenvalues --   -0.28609  -0.28254  -0.28114  -0.27668  -0.26724
 Alpha  occ. eigenvalues --   -0.25645  -0.25135  -0.23924  -0.23809  -0.23259
 Alpha virt. eigenvalues --   -0.17244  -0.17214  -0.16312  -0.14841  -0.12816
 Alpha virt. eigenvalues --   -0.11020  -0.04650  -0.04095  -0.03522  -0.03435
 Alpha virt. eigenvalues --   -0.03383  -0.02976  -0.02844  -0.02534   0.00504
 Alpha virt. eigenvalues --    0.03888   0.06457   0.06760   0.07343   0.08087
 Alpha virt. eigenvalues --    0.08255   0.08345   0.08705   0.09034   0.10698
 Alpha virt. eigenvalues --    0.11035   0.12523   0.14400   0.15247   0.15462
 Alpha virt. eigenvalues --    0.16410   0.17287   0.17649   0.17815   0.18482
 Alpha virt. eigenvalues --    0.19751   0.21066   0.21369   0.21984   0.22156
 Alpha virt. eigenvalues --    0.22987   0.23327   0.23647   0.24426   0.24856
 Alpha virt. eigenvalues --    0.25022   0.25813   0.26474   0.27192   0.27516
 Alpha virt. eigenvalues --    0.27602   0.28170   0.28505   0.29460   0.29817
 Alpha virt. eigenvalues --    0.30403   0.30672   0.31165   0.31410   0.31752
 Alpha virt. eigenvalues --    0.32630   0.32822   0.32972   0.33280   0.33848
 Alpha virt. eigenvalues --    0.34610   0.34687   0.35361   0.36214   0.36277
 Alpha virt. eigenvalues --    0.36836   0.37084   0.37389   0.38250   0.38506
 Alpha virt. eigenvalues --    0.38724   0.39357   0.39624   0.40029   0.40315
 Alpha virt. eigenvalues --    0.40583   0.40924   0.41252   0.42368   0.42455
 Alpha virt. eigenvalues --    0.42760   0.43417   0.43717   0.44328   0.44654
 Alpha virt. eigenvalues --    0.45056   0.45451   0.46168   0.46952   0.47319
 Alpha virt. eigenvalues --    0.47842   0.48857   0.48923   0.49409   0.50495
 Alpha virt. eigenvalues --    0.51112   0.51578   0.52112   0.52936   0.53424
 Alpha virt. eigenvalues --    0.53696   0.54041   0.54653   0.54993   0.55682
 Alpha virt. eigenvalues --    0.56506   0.57025   0.57499   0.58152   0.59242
 Alpha virt. eigenvalues --    0.59411   0.60233   0.61265   0.62298   0.63226
 Alpha virt. eigenvalues --    0.63694   0.64506   0.65344   0.66806   0.67041
 Alpha virt. eigenvalues --    0.67341   0.67644   0.67798   0.69260   0.69805
 Alpha virt. eigenvalues --    0.70009   0.70237   0.70735   0.71259   0.71947
 Alpha virt. eigenvalues --    0.72390   0.72729   0.73063   0.73393   0.74075
 Alpha virt. eigenvalues --    0.74667   0.74854   0.75084   0.75890   0.76584
 Alpha virt. eigenvalues --    0.76973   0.77247   0.78179   0.79355   0.80261
 Alpha virt. eigenvalues --    0.80476   0.81066   0.82079   0.82445   0.82946
 Alpha virt. eigenvalues --    0.83477   0.84222   0.86033   0.87000   0.87437
 Alpha virt. eigenvalues --    0.88360   0.88690   0.90242   0.90569   0.91271
 Alpha virt. eigenvalues --    0.91565   0.91667   0.93012   0.93146   0.93534
 Alpha virt. eigenvalues --    0.94844   0.95172   0.96113   0.96542   0.97604
 Alpha virt. eigenvalues --    0.98155   0.99331   0.99782   1.00659   1.00910
 Alpha virt. eigenvalues --    1.01548   1.02924   1.03908   1.04247   1.04674
 Alpha virt. eigenvalues --    1.05526   1.05805   1.07342   1.07566   1.08198
 Alpha virt. eigenvalues --    1.09158   1.09570   1.10135   1.10671   1.12473
 Alpha virt. eigenvalues --    1.13224   1.14317   1.15211   1.15961   1.19385
 Alpha virt. eigenvalues --    1.19829   1.20165   1.20903   1.21745   1.22916
 Alpha virt. eigenvalues --    1.24285   1.25039   1.25236   1.26164   1.26597
 Alpha virt. eigenvalues --    1.27867   1.28102   1.30687   1.31803   1.32443
 Alpha virt. eigenvalues --    1.33143   1.34806   1.37028   1.38260   1.39630
 Alpha virt. eigenvalues --    1.40374   1.41954   1.42682   1.42828   1.43879
 Alpha virt. eigenvalues --    1.44410   1.45241   1.45805   1.46861   1.47984
 Alpha virt. eigenvalues --    1.48362   1.49324   1.50228   1.50878   1.51609
 Alpha virt. eigenvalues --    1.52048   1.52160   1.53401   1.54660   1.55876
 Alpha virt. eigenvalues --    1.56518   1.56898   1.57734   1.58677   1.58744
 Alpha virt. eigenvalues --    1.59538   1.60143   1.61149   1.62148   1.62853
 Alpha virt. eigenvalues --    1.63660   1.65028   1.67140   1.67690   1.67986
 Alpha virt. eigenvalues --    1.69210   1.70017   1.71269   1.71879   1.72349
 Alpha virt. eigenvalues --    1.73274   1.73836   1.74328   1.74825   1.75839
 Alpha virt. eigenvalues --    1.77192   1.77787   1.78213   1.79051   1.79917
 Alpha virt. eigenvalues --    1.80879   1.82239   1.83618   1.85794   1.86110
 Alpha virt. eigenvalues --    1.86290   1.86991   1.88126   1.89103   1.89129
 Alpha virt. eigenvalues --    1.91099   1.91486   1.92158   1.92573   1.93553
 Alpha virt. eigenvalues --    1.94174   1.94221   1.96541   1.97000   1.97879
 Alpha virt. eigenvalues --    1.98309   1.99060   2.00434   2.00935   2.01803
 Alpha virt. eigenvalues --    2.02346   2.02947   2.03818   2.05148   2.05817
 Alpha virt. eigenvalues --    2.06133   2.06607   2.07557   2.08173   2.08850
 Alpha virt. eigenvalues --    2.09125   2.10553   2.11172   2.12034   2.12553
 Alpha virt. eigenvalues --    2.13162   2.13500   2.14410   2.14849   2.15155
 Alpha virt. eigenvalues --    2.16273   2.17151   2.17466   2.18379   2.19377
 Alpha virt. eigenvalues --    2.19698   2.20018   2.20704   2.21652   2.22317
 Alpha virt. eigenvalues --    2.23226   2.23666   2.24641   2.25264   2.26349
 Alpha virt. eigenvalues --    2.27128   2.27502   2.28226   2.28870   2.30937
 Alpha virt. eigenvalues --    2.32052   2.33325   2.33580   2.34250   2.35975
 Alpha virt. eigenvalues --    2.37595   2.38184   2.39794   2.40718   2.42880
 Alpha virt. eigenvalues --    2.44091   2.45505   2.46456   2.47107   2.47789
 Alpha virt. eigenvalues --    2.49659   2.53781   2.54726   2.56209   2.57492
 Alpha virt. eigenvalues --    2.57673   2.58510   2.61215   2.62551   2.63862
 Alpha virt. eigenvalues --    2.64784   2.66101   2.66744   2.67396   2.68252
 Alpha virt. eigenvalues --    2.68606   2.69600   2.70093   2.71180   2.72421
 Alpha virt. eigenvalues --    2.73862   2.75209   2.76112   2.79795   2.80907
 Alpha virt. eigenvalues --    2.81725   2.82668   2.84197   2.84692   2.86120
 Alpha virt. eigenvalues --    2.87853   2.89352   2.90248   2.92544   2.92698
 Alpha virt. eigenvalues --    2.93477   2.95397   2.95907   2.96331   2.96730
 Alpha virt. eigenvalues --    2.97096   2.97668   2.99146   3.00214   3.02113
 Alpha virt. eigenvalues --    3.03013   3.03468   3.03525   3.03832   3.04763
 Alpha virt. eigenvalues --    3.05442   3.06061   3.07352   3.07956   3.08958
 Alpha virt. eigenvalues --    3.09480   3.09793   3.10990   3.12149   3.12451
 Alpha virt. eigenvalues --    3.12947   3.13769   3.13793   3.14521   3.15194
 Alpha virt. eigenvalues --    3.15479   3.15950   3.16205   3.16991   3.17297
 Alpha virt. eigenvalues --    3.18036   3.18775   3.19395   3.20829   3.22187
 Alpha virt. eigenvalues --    3.22536   3.22645   3.24656   3.24955   3.25313
 Alpha virt. eigenvalues --    3.26129   3.27069   3.27482   3.28028   3.29758
 Alpha virt. eigenvalues --    3.30286   3.31918   3.32983   3.34966   3.35673
 Alpha virt. eigenvalues --    3.37428   3.38666   3.41171   3.42749   3.43799
 Alpha virt. eigenvalues --    3.44622   3.44977   3.45285   3.46183   3.46732
 Alpha virt. eigenvalues --    3.47666   3.47863   3.48547   3.48912   3.49060
 Alpha virt. eigenvalues --    3.49554   3.50413   3.50579   3.51451   3.52826
 Alpha virt. eigenvalues --    3.54888   3.55183   3.55833   3.56666   3.58149
 Alpha virt. eigenvalues --    3.59163   3.60795   3.60859   3.62578   3.62853
 Alpha virt. eigenvalues --    3.63603   3.64472   3.65411   3.66371   3.66924
 Alpha virt. eigenvalues --    3.67518   3.67796   3.71667   3.71883   3.72119
 Alpha virt. eigenvalues --    3.72761   3.73321   3.73636   3.74431   3.74677
 Alpha virt. eigenvalues --    3.76021   3.77771   3.79671   3.80724   3.81173
 Alpha virt. eigenvalues --    3.82312   3.82525   3.82893   3.83273   3.86891
 Alpha virt. eigenvalues --    3.88970   3.90087   3.91249   3.91867   3.92193
 Alpha virt. eigenvalues --    3.94665   3.95966   3.96137   3.97215   3.98564
 Alpha virt. eigenvalues --    3.99156   3.99997   4.02202   4.03304   4.06536
 Alpha virt. eigenvalues --    4.07725   4.07956   4.08508   4.10268   4.10629
 Alpha virt. eigenvalues --    4.11617   4.12855   4.13555   4.15054   4.16405
 Alpha virt. eigenvalues --    4.18614   4.19731   4.20299   4.21134   4.21836
 Alpha virt. eigenvalues --    4.22893   4.23145   4.23739   4.25122   4.25743
 Alpha virt. eigenvalues --    4.27346   4.28777   4.30936   4.33779   4.35646
 Alpha virt. eigenvalues --    4.43954   4.44950   4.45845   4.46892   4.47808
 Alpha virt. eigenvalues --    4.48879   4.49725   4.50835   4.51253   4.52700
 Alpha virt. eigenvalues --    4.53869   4.55082   4.55781   4.57224   4.59865
 Alpha virt. eigenvalues --    4.59886   4.61594   4.63603   4.66700   5.09008
 Alpha virt. eigenvalues --    5.09051   5.11730   5.15295   5.16887   5.18038
 Alpha virt. eigenvalues --    5.22881   5.23157   5.23422   5.23586   5.23964
 Alpha virt. eigenvalues --    5.24130   5.24431   5.24738   5.24999   5.25307
 Alpha virt. eigenvalues --    5.25503   5.25649   5.25703   5.26135   5.26513
 Alpha virt. eigenvalues --    5.26616   5.27129   5.27339   5.28585   5.28763
 Alpha virt. eigenvalues --    5.29262   5.29627   5.30565   5.30933   5.31208
 Alpha virt. eigenvalues --    5.31995   5.32261   5.32718   5.33074   5.33885
 Alpha virt. eigenvalues --    5.34839   5.35763   5.36722   5.38276   5.39249
 Alpha virt. eigenvalues --    5.39501   5.40232   5.40464   5.42530   5.43701
 Alpha virt. eigenvalues --    5.44857   5.46896   5.47769   5.49556   5.50675
 Alpha virt. eigenvalues --    5.50934   5.53721   5.57629   5.58127   5.58306
 Alpha virt. eigenvalues --    5.58537   5.58972   5.60048   5.61530   5.62335
 Alpha virt. eigenvalues --    5.63268   5.63728   5.64447   5.66158   5.68056
 Alpha virt. eigenvalues --    5.68727   5.69065   5.69100   5.69235   5.69606
 Alpha virt. eigenvalues --    5.87672   5.88057   5.89447   5.92804   5.93425
 Alpha virt. eigenvalues --    5.94040   5.95209   6.05059   6.05336   6.06063
 Alpha virt. eigenvalues --    6.06908   6.08421   6.09416   6.10879   6.15411
 Alpha virt. eigenvalues --    6.15783   6.16234   6.16532   6.17083   6.17788
 Alpha virt. eigenvalues --    6.18286   6.20496   6.20963   6.22204   6.22499
 Alpha virt. eigenvalues --    6.26754   6.32381   6.34603   6.37247   6.41692
 Alpha virt. eigenvalues --    6.42077   6.42305   6.42899   6.43355   6.44768
 Alpha virt. eigenvalues --    6.46912   6.47220   6.48104   6.48415   6.49655
 Alpha virt. eigenvalues --    6.49766   6.49880   6.50490   6.51105   6.51818
 Alpha virt. eigenvalues --    6.53519   6.54296   6.54992   6.55894   6.57485
 Alpha virt. eigenvalues --    6.58078   6.59533   6.60307   6.61445   6.62482
 Alpha virt. eigenvalues --    6.62972   6.63518   6.64787   6.66006   6.66687
 Alpha virt. eigenvalues --    6.67523   6.68106   6.69454   6.69794   6.71981
 Alpha virt. eigenvalues --    6.72503   6.73721   6.74835   6.75803   6.79301
 Alpha virt. eigenvalues --    6.80638   6.83813   6.84523   6.86095   6.87340
 Alpha virt. eigenvalues --    6.87642   6.88439   6.89403   6.90117   6.90612
 Alpha virt. eigenvalues --    6.90662   6.92109   6.94265   6.96121   6.96817
 Alpha virt. eigenvalues --    6.98292   6.99255   7.00206   7.00422   7.03361
 Alpha virt. eigenvalues --    7.03837   7.06004   7.06646   7.07039   7.09105
 Alpha virt. eigenvalues --    7.09323   7.11509   7.12732   7.14186   7.22514
 Alpha virt. eigenvalues --    7.22734   7.23025   7.23559   7.25096   7.25599
 Alpha virt. eigenvalues --    7.26197   7.26745   7.27071   7.27972   7.28380
 Alpha virt. eigenvalues --    7.29329   7.30203   7.32714   7.32817   7.35708
 Alpha virt. eigenvalues --    7.36836   7.39687   7.46816  23.20400  23.21138
 Alpha virt. eigenvalues --   23.22474  23.23056  23.23882  23.26825  31.50149
 Alpha virt. eigenvalues --   32.25185  43.66908  43.73310  43.79964  43.87377
 Alpha virt. eigenvalues --   43.92232  43.93642  43.96078  44.08664  44.11715
 Alpha virt. eigenvalues --   44.14517  44.16320  44.17714  44.20074  44.29353
 Alpha virt. eigenvalues --   44.30198
  Beta  occ. eigenvalues -- -255.65790-255.65106-255.63229 -30.10021 -29.99325
  Beta  occ. eigenvalues --  -29.98193 -25.87115 -25.87082 -25.87045 -25.79497
  Beta  occ. eigenvalues --  -25.79481 -25.79449 -25.78932 -25.77661 -25.77439
  Beta  occ. eigenvalues --  -19.03506 -18.99753 -18.99504 -18.99376 -18.99284
  Beta  occ. eigenvalues --  -18.98981 -18.98930 -18.98782 -18.98772 -18.98519
  Beta  occ. eigenvalues --  -18.98468 -18.98353 -18.97728 -18.97652 -18.95912
  Beta  occ. eigenvalues --  -14.24646 -14.24503 -10.19485 -10.19447 -10.18532
  Beta  occ. eigenvalues --  -10.18360 -10.18148 -10.18146  -3.66686  -3.42852
  Beta  occ. eigenvalues --   -3.42640  -2.40749  -2.40665  -2.40609  -2.19368
  Beta  occ. eigenvalues --   -2.17356  -2.17206  -2.17125  -2.16010  -2.15572
  Beta  occ. eigenvalues --   -1.08182  -1.07639  -1.07047  -1.06707  -1.06541
  Beta  occ. eigenvalues --   -1.06117  -1.05563  -1.05465  -1.00187  -0.99798
  Beta  occ. eigenvalues --   -0.99260  -0.98893  -0.98778  -0.98318  -0.93766
  Beta  occ. eigenvalues --   -0.85371  -0.60438  -0.59396  -0.58846  -0.58576
  Beta  occ. eigenvalues --   -0.58278  -0.57846  -0.55740  -0.50287  -0.50263
  Beta  occ. eigenvalues --   -0.49374  -0.49019  -0.48848  -0.48570  -0.47986
  Beta  occ. eigenvalues --   -0.47536  -0.47409  -0.46980  -0.46798  -0.46375
  Beta  occ. eigenvalues --   -0.46260  -0.45021  -0.44174  -0.43225  -0.43096
  Beta  occ. eigenvalues --   -0.42720  -0.42308  -0.41504  -0.41391  -0.41238
  Beta  occ. eigenvalues --   -0.41173  -0.40815  -0.39404  -0.39322  -0.37803
  Beta  occ. eigenvalues --   -0.36671  -0.36232  -0.35537  -0.35468  -0.32627
  Beta  occ. eigenvalues --   -0.32316  -0.31949  -0.31877  -0.30909  -0.30650
  Beta  occ. eigenvalues --   -0.30504  -0.30167  -0.29922  -0.29617  -0.29320
  Beta  occ. eigenvalues --   -0.29028  -0.28834  -0.28721  -0.28453  -0.28368
  Beta  occ. eigenvalues --   -0.27675  -0.26405  -0.26208  -0.25571  -0.25325
  Beta  occ. eigenvalues --   -0.23934
  Beta virt. eigenvalues --   -0.17960  -0.17399  -0.17331  -0.15846  -0.12842
  Beta virt. eigenvalues --   -0.12315  -0.12231  -0.11279  -0.11201  -0.07229
  Beta virt. eigenvalues --   -0.04778  -0.04088  -0.03444  -0.03374  -0.03061
  Beta virt. eigenvalues --   -0.02879  -0.02639  -0.02372   0.00681   0.03025
  Beta virt. eigenvalues --    0.06509   0.06828   0.07166   0.08139   0.08300
  Beta virt. eigenvalues --    0.08315   0.08721   0.09040   0.10642   0.11037
  Beta virt. eigenvalues --    0.12367   0.14099   0.14444   0.16346   0.16487
  Beta virt. eigenvalues --    0.17125   0.17412   0.17932   0.18979   0.20369
  Beta virt. eigenvalues --    0.21130   0.21644   0.22041   0.22154   0.23074
  Beta virt. eigenvalues --    0.23320   0.23899   0.24505   0.24954   0.25081
  Beta virt. eigenvalues --    0.26239   0.26813   0.27266   0.27695   0.27907
  Beta virt. eigenvalues --    0.28466   0.28888   0.29623   0.29830   0.30533
  Beta virt. eigenvalues --    0.30814   0.31445   0.31677   0.32006   0.32558
  Beta virt. eigenvalues --    0.33094   0.33251   0.33395   0.33881   0.34506
  Beta virt. eigenvalues --    0.34832   0.35426   0.36311   0.36445   0.36969
  Beta virt. eigenvalues --    0.37154   0.37425   0.38297   0.38651   0.38757
  Beta virt. eigenvalues --    0.39428   0.39686   0.40085   0.40541   0.40737
  Beta virt. eigenvalues --    0.41290   0.41363   0.42352   0.42526   0.42817
  Beta virt. eigenvalues --    0.43512   0.43887   0.44362   0.44701   0.45199
  Beta virt. eigenvalues --    0.45534   0.46503   0.46968   0.47589   0.47906
  Beta virt. eigenvalues --    0.48874   0.49159   0.49466   0.50698   0.51270
  Beta virt. eigenvalues --    0.51769   0.52359   0.53037   0.53423   0.53853
  Beta virt. eigenvalues --    0.54389   0.54848   0.55016   0.55688   0.56914
  Beta virt. eigenvalues --    0.57083   0.57798   0.58416   0.59234   0.59802
  Beta virt. eigenvalues --    0.60328   0.61486   0.62484   0.63391   0.64069
  Beta virt. eigenvalues --    0.64969   0.65488   0.66884   0.67101   0.67616
  Beta virt. eigenvalues --    0.67897   0.68176   0.69507   0.70019   0.70358
  Beta virt. eigenvalues --    0.70762   0.70934   0.71662   0.72134   0.72387
  Beta virt. eigenvalues --    0.72878   0.73478   0.73530   0.74272   0.74640
  Beta virt. eigenvalues --    0.75016   0.75368   0.76109   0.76741   0.77170
  Beta virt. eigenvalues --    0.77525   0.78212   0.79572   0.80280   0.80426
  Beta virt. eigenvalues --    0.81033   0.82451   0.83031   0.83086   0.84241
  Beta virt. eigenvalues --    0.84825   0.86144   0.87375   0.87880   0.89014
  Beta virt. eigenvalues --    0.89304   0.90490   0.90720   0.91509   0.91935
  Beta virt. eigenvalues --    0.92326   0.93073   0.93672   0.93949   0.95116
  Beta virt. eigenvalues --    0.95261   0.96649   0.97112   0.97738   0.97994
  Beta virt. eigenvalues --    0.99479   1.00364   1.00389   1.01189   1.02403
  Beta virt. eigenvalues --    1.03616   1.04068   1.04688   1.05049   1.05810
  Beta virt. eigenvalues --    1.06435   1.07757   1.08299   1.08730   1.09474
  Beta virt. eigenvalues --    1.10145   1.10662   1.11747   1.12203   1.14007
  Beta virt. eigenvalues --    1.14391   1.14508   1.15992   1.19707   1.19892
  Beta virt. eigenvalues --    1.20059   1.21260   1.22165   1.23466   1.24606
  Beta virt. eigenvalues --    1.25165   1.25421   1.26297   1.26904   1.28206
  Beta virt. eigenvalues --    1.28335   1.30784   1.31859   1.32665   1.33541
  Beta virt. eigenvalues --    1.35038   1.37547   1.38463   1.39496   1.40372
  Beta virt. eigenvalues --    1.42197   1.42792   1.42940   1.44363   1.45072
  Beta virt. eigenvalues --    1.45446   1.46066   1.47268   1.48118   1.48871
  Beta virt. eigenvalues --    1.49140   1.50386   1.50839   1.51789   1.52261
  Beta virt. eigenvalues --    1.52848   1.54190   1.54992   1.55732   1.56856
  Beta virt. eigenvalues --    1.57051   1.58110   1.58844   1.59171   1.59642
  Beta virt. eigenvalues --    1.60717   1.61559   1.62608   1.63493   1.63814
  Beta virt. eigenvalues --    1.65675   1.67478   1.67914   1.68461   1.69776
  Beta virt. eigenvalues --    1.70336   1.71611   1.72289   1.73145   1.73760
  Beta virt. eigenvalues --    1.74351   1.75063   1.75164   1.76406   1.77781
  Beta virt. eigenvalues --    1.78264   1.78469   1.79651   1.80430   1.81019
  Beta virt. eigenvalues --    1.82806   1.84179   1.85973   1.86385   1.86433
  Beta virt. eigenvalues --    1.87021   1.87970   1.89277   1.89666   1.91054
  Beta virt. eigenvalues --    1.91840   1.92526   1.92959   1.93784   1.94331
  Beta virt. eigenvalues --    1.94492   1.96649   1.97163   1.97827   1.99013
  Beta virt. eigenvalues --    1.99228   2.00517   2.01194   2.02253   2.02767
  Beta virt. eigenvalues --    2.03311   2.04358   2.04816   2.06110   2.06661
  Beta virt. eigenvalues --    2.06997   2.08085   2.08707   2.09213   2.09637
  Beta virt. eigenvalues --    2.10451   2.11526   2.12245   2.12580   2.13462
  Beta virt. eigenvalues --    2.13798   2.14369   2.14680   2.15478   2.16388
  Beta virt. eigenvalues --    2.17528   2.17764   2.18626   2.19718   2.20380
  Beta virt. eigenvalues --    2.21039   2.21635   2.22950   2.23040   2.23661
  Beta virt. eigenvalues --    2.24367   2.25240   2.25309   2.26807   2.26974
  Beta virt. eigenvalues --    2.27604   2.28776   2.30343   2.31768   2.32335
  Beta virt. eigenvalues --    2.33559   2.33755   2.34407   2.37326   2.37828
  Beta virt. eigenvalues --    2.39627   2.39951   2.40912   2.43223   2.44733
  Beta virt. eigenvalues --    2.45831   2.47173   2.47268   2.48635   2.49901
  Beta virt. eigenvalues --    2.54292   2.55423   2.56713   2.57843   2.58100
  Beta virt. eigenvalues --    2.59116   2.61722   2.62626   2.63988   2.65030
  Beta virt. eigenvalues --    2.66709   2.67165   2.67592   2.68483   2.68926
  Beta virt. eigenvalues --    2.70107   2.70588   2.71831   2.73386   2.74090
  Beta virt. eigenvalues --    2.74438   2.76936   2.80430   2.81529   2.82024
  Beta virt. eigenvalues --    2.82901   2.84564   2.85413   2.87128   2.88742
  Beta virt. eigenvalues --    2.90213   2.91454   2.92606   2.93187   2.93965
  Beta virt. eigenvalues --    2.95183   2.96423   2.96672   2.97324   2.97650
  Beta virt. eigenvalues --    2.98467   2.99526   3.00810   3.02633   3.03206
  Beta virt. eigenvalues --    3.03488   3.03935   3.04287   3.05535   3.06063
  Beta virt. eigenvalues --    3.06710   3.07614   3.08425   3.09356   3.09750
  Beta virt. eigenvalues --    3.10616   3.11262   3.12401   3.12585   3.13332
  Beta virt. eigenvalues --    3.13775   3.14140   3.14636   3.15419   3.15576
  Beta virt. eigenvalues --    3.16140   3.16277   3.17160   3.17333   3.18179
  Beta virt. eigenvalues --    3.19226   3.20060   3.21149   3.21859   3.22631
  Beta virt. eigenvalues --    3.23846   3.24976   3.25267   3.25683   3.26708
  Beta virt. eigenvalues --    3.27444   3.27708   3.28342   3.29747   3.30766
  Beta virt. eigenvalues --    3.32465   3.33068   3.35275   3.36116   3.38089
  Beta virt. eigenvalues --    3.39824   3.41802   3.43019   3.43838   3.45451
  Beta virt. eigenvalues --    3.45488   3.46030   3.46086   3.47556   3.48052
  Beta virt. eigenvalues --    3.48570   3.49234   3.49336   3.50090   3.50554
  Beta virt. eigenvalues --    3.50805   3.51120   3.52529   3.53669   3.54612
  Beta virt. eigenvalues --    3.55704   3.56378   3.57727   3.59015   3.59816
  Beta virt. eigenvalues --    3.60733   3.61809   3.63157   3.63246   3.63840
  Beta virt. eigenvalues --    3.64243   3.66986   3.67069   3.67741   3.68422
  Beta virt. eigenvalues --    3.71267   3.71880   3.72496   3.73385   3.73485
  Beta virt. eigenvalues --    3.73928   3.75107   3.76187   3.77095   3.77918
  Beta virt. eigenvalues --    3.78423   3.79523   3.80655   3.82113   3.82337
  Beta virt. eigenvalues --    3.83514   3.85413   3.85946   3.89247   3.90858
  Beta virt. eigenvalues --    3.91750   3.92637   3.93147   3.94737   3.97647
  Beta virt. eigenvalues --    3.99026   4.00479   4.01482   4.03384   4.06633
  Beta virt. eigenvalues --    4.07633   4.08485   4.09822   4.10240   4.10331
  Beta virt. eigenvalues --    4.10868   4.12163   4.13352   4.14009   4.15189
  Beta virt. eigenvalues --    4.15942   4.17060   4.17965   4.18403   4.20224
  Beta virt. eigenvalues --    4.21580   4.22428   4.22977   4.23018   4.23698
  Beta virt. eigenvalues --    4.24017   4.24766   4.25335   4.27555   4.28820
  Beta virt. eigenvalues --    4.30260   4.31831   4.34914   4.37192   4.43818
  Beta virt. eigenvalues --    4.45127   4.46034   4.47083   4.47957   4.49206
  Beta virt. eigenvalues --    4.50282   4.51200   4.51476   4.53092   4.54087
  Beta virt. eigenvalues --    4.55655   4.57026   4.59961   4.60527   4.61780
  Beta virt. eigenvalues --    4.62656   4.63773   4.66847   5.09016   5.09058
  Beta virt. eigenvalues --    5.11738   5.15304   5.16908   5.18581   5.22766
  Beta virt. eigenvalues --    5.23317   5.23515   5.23986   5.24300   5.24572
  Beta virt. eigenvalues --    5.24927   5.25315   5.25485   5.25713   5.25929
  Beta virt. eigenvalues --    5.26196   5.26615   5.27219   5.27795   5.28037
  Beta virt. eigenvalues --    5.28826   5.29123   5.29204   5.30027   5.30547
  Beta virt. eigenvalues --    5.30925   5.31575   5.32422   5.32724   5.33064
  Beta virt. eigenvalues --    5.33284   5.33462   5.34324   5.34461   5.35238
  Beta virt. eigenvalues --    5.36381   5.37599   5.38405   5.40364   5.40481
  Beta virt. eigenvalues --    5.42457   5.42984   5.43676   5.44063   5.45444
  Beta virt. eigenvalues --    5.45834   5.47999   5.49993   5.50769   5.51539
  Beta virt. eigenvalues --    5.54050   5.57651   5.58029   5.58579   5.58658
  Beta virt. eigenvalues --    5.59126   5.60424   5.61712   5.62718   5.63372
  Beta virt. eigenvalues --    5.63637   5.64520   5.66289   5.68245   5.68798
  Beta virt. eigenvalues --    5.69027   5.69321   5.69567   5.69955   5.87816
  Beta virt. eigenvalues --    5.88189   5.89489   5.93145   5.93530   5.95505
  Beta virt. eigenvalues --    5.99736   6.05169   6.05384   6.06091   6.07068
  Beta virt. eigenvalues --    6.08806   6.09337   6.11286   6.15108   6.15794
  Beta virt. eigenvalues --    6.16363   6.16763   6.17072   6.17955   6.18418
  Beta virt. eigenvalues --    6.20702   6.21167   6.22660   6.22881   6.27539
  Beta virt. eigenvalues --    6.32455   6.35088   6.41999   6.42440   6.42644
  Beta virt. eigenvalues --    6.42722   6.43524   6.43996   6.45276   6.47416
  Beta virt. eigenvalues --    6.48290   6.48802   6.49700   6.50178   6.50328
  Beta virt. eigenvalues --    6.50838   6.51505   6.52430   6.52907   6.54427
  Beta virt. eigenvalues --    6.54983   6.55304   6.56673   6.57458   6.58755
  Beta virt. eigenvalues --    6.60399   6.60857   6.62313   6.63305   6.63619
  Beta virt. eigenvalues --    6.64178   6.65257   6.66359   6.66903   6.67627
  Beta virt. eigenvalues --    6.68155   6.70119   6.71670   6.72895   6.74186
  Beta virt. eigenvalues --    6.74718   6.74996   6.76588   6.79736   6.80966
  Beta virt. eigenvalues --    6.83778   6.84870   6.86134   6.87286   6.87934
  Beta virt. eigenvalues --    6.88265   6.89174   6.90004   6.90674   6.91373
  Beta virt. eigenvalues --    6.91911   6.94721   6.95993   6.96931   6.98466
  Beta virt. eigenvalues --    6.99213   6.99960   7.01018   7.03565   7.04105
  Beta virt. eigenvalues --    7.06123   7.06703   7.07557   7.09273   7.09358
  Beta virt. eigenvalues --    7.11987   7.12907   7.14545   7.22499   7.22767
  Beta virt. eigenvalues --    7.23452   7.24593   7.25097   7.25686   7.26303
  Beta virt. eigenvalues --    7.27175   7.27706   7.28241   7.28342   7.29644
  Beta virt. eigenvalues --    7.30841   7.32914   7.33130   7.36087   7.37510
  Beta virt. eigenvalues --    7.40076   7.47635  23.20396  23.21139  23.22467
  Beta virt. eigenvalues --   23.23051  23.23883  23.26827  31.50148  32.25185
  Beta virt. eigenvalues --   43.66903  43.73173  43.79967  43.87383  43.92234
  Beta virt. eigenvalues --   43.93643  43.96083  44.08639  44.11711  44.14516
  Beta virt. eigenvalues --   44.16320  44.17717  44.20073  44.29364  44.30202
          Condensed to atoms (all electrons):
               1          2          3          4          5          6
     1  O    8.329961  -0.092960   0.323583  -0.065610   0.000010  -0.001428
     2  O   -0.092960   8.250000   0.370800  -0.053712  -0.000000   0.000008
     3  C    0.323583   0.370800   4.236303   0.415019  -0.000052   0.000595
     4  H   -0.065610  -0.053712   0.415019   0.645047  -0.000000   0.000002
     5  O    0.000010  -0.000000  -0.000052  -0.000000   8.358526  -0.101919
     6  O   -0.001428   0.000008   0.000595   0.000002  -0.101919   8.292577
     7  C    0.000606  -0.000067   0.000223   0.000002   0.385050   0.374224
     8  H    0.000003  -0.000000   0.000002   0.000000  -0.056017  -0.061704
     9  O    0.000015  -0.020365   0.000994  -0.000047  -0.000006  -0.000001
    10  O   -0.036728   0.000078  -0.000956  -0.000089  -0.000711  -0.040804
    11  O   -0.000031  -0.000011  -0.000081   0.000001  -0.034388   0.001219
    12  C   -0.000476  -0.000033   0.001372   0.000025   0.002484  -0.002908
    13  H   -0.000097   0.000000   0.000069   0.000001  -0.000086  -0.000276
    14  O    0.000719  -0.025093   0.002238  -0.000101  -0.000015   0.000054
    15  O   -0.036632  -0.001948  -0.001470  -0.000455   0.000036  -0.036996
    16  C   -0.002786   0.007989   0.000181   0.000456   0.000116  -0.002009
    17  H   -0.000219  -0.000015   0.000377  -0.000003   0.000006  -0.000170
    18  Fe  -0.006582   0.126066  -0.016658   0.002131   0.000493   0.000427
    19  O   -0.000001  -0.000984   0.000182   0.000001   0.000016  -0.000007
    20  Fe  -0.000109   0.000187   0.000163   0.000013   0.108216  -0.005381
    21  O   -0.000000  -0.000002  -0.000003  -0.000000  -0.028265  -0.000001
    22  O   -0.000010  -0.000043  -0.000067  -0.000001  -0.001338  -0.000001
    23  Fe   0.147298   0.003053  -0.020714   0.003553  -0.001494   0.132878
    24  O   -0.009977  -0.024842  -0.002858  -0.000485  -0.023181  -0.012329
    25  C   -0.000003   0.000211  -0.000018  -0.000000   0.001124  -0.000053
    26  H   -0.000000   0.000001  -0.000000   0.000000   0.000019   0.000000
    27  C   -0.000062   0.001594   0.000401   0.000083   0.000597  -0.000015
    28  H    0.000000  -0.000016   0.000036   0.000000   0.000005  -0.000000
    29  N    0.000000  -0.000000  -0.000000  -0.000000   0.000000   0.000000
    30  N    0.000000  -0.000005  -0.000002  -0.000000  -0.000000  -0.000000
    31  O   -0.000060  -0.024319   0.000489   0.000081  -0.000000  -0.000000
    32  O   -0.000000  -0.000000  -0.000001  -0.000000  -0.029290  -0.000076
    33  H   -0.000000  -0.000000   0.000000  -0.000000   0.001226  -0.000000
    34  H   -0.000000   0.000000   0.000000   0.000000   0.004379   0.000077
               7          8          9         10         11         12
     1  O    0.000606   0.000003   0.000015  -0.036728  -0.000031  -0.000476
     2  O   -0.000067  -0.000000  -0.020365   0.000078  -0.000011  -0.000033
     3  C    0.000223   0.000002   0.000994  -0.000956  -0.000081   0.001372
     4  H    0.000002   0.000000  -0.000047  -0.000089   0.000001   0.000025
     5  O    0.385050  -0.056017  -0.000006  -0.000711  -0.034388   0.002484
     6  O    0.374224  -0.061704  -0.000001  -0.040804   0.001219  -0.002908
     7  C    4.154352   0.415158  -0.000008   0.000117  -0.000607  -0.001326
     8  H    0.415158   0.647864  -0.000000  -0.000335  -0.000170   0.000287
     9  O   -0.000008  -0.000000   8.258330  -0.000024   0.000123  -0.000057
    10  O    0.000117  -0.000335  -0.000024   8.288185  -0.100795   0.393636
    11  O   -0.000607  -0.000170   0.000123  -0.100795   8.387585   0.372482
    12  C   -0.001326   0.000287  -0.000057   0.393636   0.372482   4.143383
    13  H    0.000258  -0.000006  -0.000003  -0.059315  -0.060496   0.413782
    14  O   -0.000109  -0.000001  -0.002052  -0.000002  -0.000000  -0.000025
    15  O   -0.001164  -0.000115  -0.000010  -0.001232  -0.000004   0.000666
    16  C    0.001296   0.000026   0.000651   0.000579  -0.000025   0.000025
    17  H    0.000068   0.000001   0.000002   0.000004  -0.000000   0.000001
    18  Fe  -0.000158   0.000010   0.126936   0.000362   0.000570  -0.000048
    19  O   -0.000081  -0.000001  -0.023161  -0.000000   0.000004  -0.000028
    20  Fe  -0.009526   0.001703  -0.003415  -0.004723   0.106126  -0.001011
    21  O    0.001133  -0.000050   0.000509  -0.000007  -0.001479   0.000687
    22  O    0.000431   0.000003  -0.081444   0.000004  -0.027220   0.000549
    23  Fe  -0.017620   0.003090   0.000204   0.127942  -0.006155  -0.014891
    24  O   -0.000120  -0.000374  -0.023799  -0.021552  -0.017380   0.000714
    25  C    0.000312   0.000042   0.002459  -0.000030   0.000859  -0.000069
    26  H    0.000015   0.000000  -0.000088  -0.000000   0.000004   0.000001
    27  C   -0.000055  -0.000000   0.346645   0.000097  -0.001593   0.000430
    28  H    0.000000   0.000000  -0.059335   0.000003  -0.000136   0.000079
    29  N   -0.000000   0.000000   0.000043  -0.000000   0.000000   0.000000
    30  N   -0.000000  -0.000000  -0.002906  -0.000000  -0.000000  -0.000000
    31  O   -0.000000  -0.000000  -0.027617  -0.000001  -0.000000   0.000001
    32  O    0.001058   0.000052  -0.000003  -0.000043  -0.031208   0.000722
    33  H    0.000002   0.000005  -0.000003   0.000101   0.006149   0.000549
    34  H    0.000610  -0.000129  -0.000002   0.000001   0.000754   0.000064
              13         14         15         16         17         18
     1  O   -0.000097   0.000719  -0.036632  -0.002786  -0.000219  -0.006582
     2  O    0.000000  -0.025093  -0.001948   0.007989  -0.000015   0.126066
     3  C    0.000069   0.002238  -0.001470   0.000181   0.000377  -0.016658
     4  H    0.000001  -0.000101  -0.000455   0.000456  -0.000003   0.002131
     5  O   -0.000086  -0.000015   0.000036   0.000116   0.000006   0.000493
     6  O   -0.000276   0.000054  -0.036996  -0.002009  -0.000170   0.000427
     7  C    0.000258  -0.000109  -0.001164   0.001296   0.000068  -0.000158
     8  H   -0.000006  -0.000001  -0.000115   0.000026   0.000001   0.000010
     9  O   -0.000003  -0.002052  -0.000010   0.000651   0.000002   0.126936
    10  O   -0.059315  -0.000002  -0.001232   0.000579   0.000004   0.000362
    11  O   -0.060496  -0.000000  -0.000004  -0.000025  -0.000000   0.000570
    12  C    0.413782  -0.000025   0.000666   0.000025   0.000001  -0.000048
    13  H    0.650842  -0.000000   0.000005   0.000000   0.000000   0.000015
    14  O   -0.000000   8.239104  -0.085608   0.364437  -0.059628   0.129307
    15  O    0.000005  -0.085608   8.318997   0.352462  -0.061961  -0.006267
    16  C    0.000000   0.364437   0.352462   4.207740   0.413018  -0.008239
    17  H    0.000000  -0.059628  -0.061961   0.413018   0.648383   0.003022
    18  Fe   0.000015   0.129307  -0.006267  -0.008239   0.003022  24.248657
    19  O   -0.000000  -0.023175  -0.000019   0.001365  -0.000017   0.118678
    20  Fe   0.002319   0.000779  -0.000159  -0.000033   0.000041   0.015230
    21  O    0.000005   0.000020  -0.000024   0.000008   0.000001  -0.005118
    22  O   -0.000006  -0.000013  -0.000000  -0.000024  -0.000000  -0.005502
    23  Fe   0.002714  -0.005532   0.140373  -0.014970   0.002503   0.014632
    24  O   -0.000407  -0.019967  -0.022093  -0.004146  -0.000653   0.072462
    25  C    0.000001   0.001682  -0.000044   0.000326   0.000051  -0.012382
    26  H    0.000000  -0.000084  -0.000000   0.000111  -0.000000   0.001668
    27  C    0.000037   0.000703  -0.000033   0.000038   0.000003  -0.008308
    28  H    0.000002   0.000003  -0.000000   0.000002   0.000000   0.002688
    29  N    0.000000  -0.000010   0.000000  -0.000002  -0.000000  -0.000073
    30  N   -0.000000  -0.000005  -0.000000   0.000000  -0.000000  -0.000254
    31  O   -0.000000  -0.026771  -0.000037   0.001353   0.000030   0.199362
    32  O   -0.000057  -0.000000   0.000000  -0.000002  -0.000000   0.000063
    33  H   -0.000197  -0.000000  -0.000000   0.000000   0.000000  -0.000012
    34  H    0.000014  -0.000000  -0.000000   0.000000  -0.000000  -0.000008
              19         20         21         22         23         24
     1  O   -0.000001  -0.000109  -0.000000  -0.000010   0.147298  -0.009977
     2  O   -0.000984   0.000187  -0.000002  -0.000043   0.003053  -0.024842
     3  C    0.000182   0.000163  -0.000003  -0.000067  -0.020714  -0.002858
     4  H    0.000001   0.000013  -0.000000  -0.000001   0.003553  -0.000485
     5  O    0.000016   0.108216  -0.028265  -0.001338  -0.001494  -0.023181
     6  O   -0.000007  -0.005381  -0.000001  -0.000001   0.132878  -0.012329
     7  C   -0.000081  -0.009526   0.001133   0.000431  -0.017620  -0.000120
     8  H   -0.000001   0.001703  -0.000050   0.000003   0.003090  -0.000374
     9  O   -0.023161  -0.003415   0.000509  -0.081444   0.000204  -0.023799
    10  O   -0.000000  -0.004723  -0.000007   0.000004   0.127942  -0.021552
    11  O    0.000004   0.106126  -0.001479  -0.027220  -0.006155  -0.017380
    12  C   -0.000028  -0.001011   0.000687   0.000549  -0.014891   0.000714
    13  H   -0.000000   0.002319   0.000005  -0.000006   0.002714  -0.000407
    14  O   -0.023175   0.000779   0.000020  -0.000013  -0.005532  -0.019967
    15  O   -0.000019  -0.000159  -0.000024  -0.000000   0.140373  -0.022093
    16  C    0.001365  -0.000033   0.000008  -0.000024  -0.014970  -0.004146
    17  H   -0.000017   0.000041   0.000001  -0.000000   0.002503  -0.000653
    18  Fe   0.118678   0.015230  -0.005118  -0.005502   0.014632   0.072462
    19  O    8.279443  -0.000835  -0.096919  -0.001751  -0.000225  -0.023685
    20  Fe  -0.000835  24.320577   0.139757   0.152063   0.014152   0.098033
    21  O   -0.096919   0.139757   8.357023  -0.026502  -0.000041  -0.020161
    22  O   -0.001751   0.152063  -0.026502   8.328456  -0.000250  -0.029548
    23  Fe  -0.000225   0.014152  -0.000041  -0.000250  24.370438   0.121574
    24  O   -0.023685   0.098033  -0.020161  -0.029548   0.121574   8.675930
    25  C    0.376302  -0.007242   0.329999   0.001263   0.000425  -0.000002
    26  H   -0.055284   0.002615  -0.064673  -0.000287   0.000018  -0.000519
    27  C    0.008262  -0.020875  -0.000318   0.327415   0.000922   0.002881
    28  H   -0.000002   0.001717  -0.000109  -0.060172   0.000040  -0.000528
    29  N    0.000608   0.000018   0.000006  -0.000006   0.000000  -0.000001
    30  N   -0.005920   0.000745  -0.000004   0.000281   0.000001  -0.000010
    31  O   -0.024610   0.000674  -0.000061  -0.000022   0.000286  -0.008897
    32  O   -0.000060   0.102757  -0.024959  -0.012864   0.000319  -0.002102
    33  H   -0.000006  -0.004705   0.000590  -0.000078  -0.000062   0.000132
    34  H    0.000011  -0.004623   0.000398   0.000218  -0.000028   0.000123
              25         26         27         28         29         30
     1  O   -0.000003  -0.000000  -0.000062   0.000000   0.000000   0.000000
     2  O    0.000211   0.000001   0.001594  -0.000016  -0.000000  -0.000005
     3  C   -0.000018  -0.000000   0.000401   0.000036  -0.000000  -0.000002
     4  H   -0.000000   0.000000   0.000083   0.000000  -0.000000  -0.000000
     5  O    0.001124   0.000019   0.000597   0.000005   0.000000  -0.000000
     6  O   -0.000053   0.000000  -0.000015  -0.000000   0.000000  -0.000000
     7  C    0.000312   0.000015  -0.000055   0.000000  -0.000000  -0.000000
     8  H    0.000042   0.000000  -0.000000   0.000000   0.000000  -0.000000
     9  O    0.002459  -0.000088   0.346645  -0.059335   0.000043  -0.002906
    10  O   -0.000030  -0.000000   0.000097   0.000003  -0.000000  -0.000000
    11  O    0.000859   0.000004  -0.001593  -0.000136   0.000000  -0.000000
    12  C   -0.000069   0.000001   0.000430   0.000079   0.000000  -0.000000
    13  H    0.000001   0.000000   0.000037   0.000002   0.000000  -0.000000
    14  O    0.001682  -0.000084   0.000703   0.000003  -0.000010  -0.000005
    15  O   -0.000044  -0.000000  -0.000033  -0.000000   0.000000  -0.000000
    16  C    0.000326   0.000111   0.000038   0.000002  -0.000002   0.000000
    17  H    0.000051  -0.000000   0.000003   0.000000  -0.000000  -0.000000
    18  Fe  -0.012382   0.001668  -0.008308   0.002688  -0.000073  -0.000254
    19  O    0.376302  -0.055284   0.008262  -0.000002   0.000608  -0.005920
    20  Fe  -0.007242   0.002615  -0.020875   0.001717   0.000018   0.000745
    21  O    0.329999  -0.064673  -0.000318  -0.000109   0.000006  -0.000004
    22  O    0.001263  -0.000287   0.327415  -0.060172  -0.000006   0.000281
    23  Fe   0.000425   0.000018   0.000922   0.000040   0.000000   0.000001
    24  O   -0.000002  -0.000519   0.002881  -0.000528  -0.000001  -0.000010
    25  C    4.199783   0.414384  -0.001082   0.000414   0.000171  -0.000937
    26  H    0.414384   0.651367   0.000416  -0.000002   0.000061   0.000139
    27  C   -0.001082   0.000416   4.241594   0.413447  -0.000073  -0.010325
    28  H    0.000414  -0.000002   0.413447   0.643348  -0.000051   0.001738
    29  N    0.000171   0.000061  -0.000073  -0.000051   6.625994   0.391490
    30  N   -0.000937   0.000139  -0.010325   0.001738   0.391490   6.616082
    31  O    0.001346   0.000079   0.001013   0.000046  -0.003323   0.000948
    32  O    0.000126  -0.000014  -0.001772  -0.000048   0.000000   0.000000
    33  H   -0.000035  -0.000002   0.000151   0.000006   0.000000  -0.000000
    34  H    0.000036   0.000005   0.000078   0.000001  -0.000000  -0.000000
              31         32         33         34
     1  O   -0.000060  -0.000000  -0.000000  -0.000000
     2  O   -0.024319  -0.000000  -0.000000   0.000000
     3  C    0.000489  -0.000001   0.000000   0.000000
     4  H    0.000081  -0.000000  -0.000000   0.000000
     5  O   -0.000000  -0.029290   0.001226   0.004379
     6  O   -0.000000  -0.000076  -0.000000   0.000077
     7  C   -0.000000   0.001058   0.000002   0.000610
     8  H   -0.000000   0.000052   0.000005  -0.000129
     9  O   -0.027617  -0.000003  -0.000003  -0.000002
    10  O   -0.000001  -0.000043   0.000101   0.000001
    11  O   -0.000000  -0.031208   0.006149   0.000754
    12  C    0.000001   0.000722   0.000549   0.000064
    13  H   -0.000000  -0.000057  -0.000197   0.000014
    14  O   -0.026771  -0.000000  -0.000000  -0.000000
    15  O   -0.000037   0.000000  -0.000000  -0.000000
    16  C    0.001353  -0.000002   0.000000   0.000000
    17  H    0.000030  -0.000000   0.000000  -0.000000
    18  Fe   0.199362   0.000063  -0.000012  -0.000008
    19  O   -0.024610  -0.000060  -0.000006   0.000011
    20  Fe   0.000674   0.102757  -0.004705  -0.004623
    21  O   -0.000061  -0.024959   0.000590   0.000398
    22  O   -0.000022  -0.012864  -0.000078   0.000218
    23  Fe   0.000286   0.000319  -0.000062  -0.000028
    24  O   -0.008897  -0.002102   0.000132   0.000123
    25  C    0.001346   0.000126  -0.000035   0.000036
    26  H    0.000079  -0.000014  -0.000002   0.000005
    27  C    0.001013  -0.001772   0.000151   0.000078
    28  H    0.000046  -0.000048   0.000006   0.000001
    29  N   -0.003323   0.000000   0.000000  -0.000000
    30  N    0.000948   0.000000  -0.000000  -0.000000
    31  O    8.346622  -0.000000   0.000000   0.000000
    32  O   -0.000000   7.937741   0.301517   0.303463
    33  H    0.000000   0.301517   0.334246  -0.010266
    34  H    0.000000   0.303463  -0.010266   0.327158
          Atomic-Atomic Spin Densities.
               1          2          3          4          5          6
     1  O   -0.156441   0.000479   0.001515   0.000546   0.000004  -0.000666
     2  O    0.000479   0.075436   0.001597   0.001114  -0.000000   0.000004
     3  C    0.001515   0.001597  -0.000699  -0.002364  -0.000000   0.000123
     4  H    0.000546   0.001114  -0.002364  -0.001963   0.000000  -0.000003
     5  O    0.000004  -0.000000  -0.000000   0.000000   0.095236   0.000023
     6  O   -0.000666   0.000004   0.000123  -0.000003   0.000023  -0.121350
     7  C    0.000127   0.000002  -0.000044   0.000001   0.002858   0.001212
     8  H   -0.000004  -0.000000   0.000001  -0.000000   0.000768   0.000552
     9  O    0.000025  -0.003761   0.000535  -0.000051   0.000003   0.000001
    10  O    0.004583  -0.000014  -0.000567   0.000044  -0.000081   0.004482
    11  O   -0.000032  -0.000008   0.000024  -0.000001  -0.001973   0.000007
    12  C   -0.000458   0.000013  -0.000095   0.000001   0.001254  -0.000541
    13  H    0.000064  -0.000000  -0.000017   0.000003  -0.000063   0.000064
    14  O    0.000009  -0.004054   0.000774  -0.000047  -0.000012  -0.000039
    15  O    0.006161   0.000137  -0.001921   0.000145  -0.000042   0.004404
    16  C   -0.000758   0.001042   0.000023   0.000009   0.000022  -0.000503
    17  H    0.000060  -0.000121   0.000040  -0.000000  -0.000002   0.000078
    18  Fe   0.000994  -0.038258   0.002402  -0.000151   0.000097   0.000097
    19  O    0.000001   0.000132  -0.000028   0.000001   0.000006   0.000005
    20  Fe   0.000168  -0.000065   0.000035   0.000001  -0.043077   0.002009
    21  O    0.000000  -0.000000   0.000000   0.000000  -0.002924   0.000032
    22  O    0.000003  -0.000019   0.000009   0.000000   0.000688   0.000005
    23  Fe   0.040762  -0.003370   0.008147  -0.000374  -0.004078   0.036882
    24  O    0.005170   0.000327  -0.001481   0.000129  -0.002664   0.004242
    25  C    0.000002  -0.000016  -0.000000  -0.000000   0.000371   0.000002
    26  H    0.000000   0.000001  -0.000000   0.000000  -0.000039   0.000001
    27  C   -0.000019   0.000390  -0.000108   0.000019  -0.000097   0.000000
    28  H    0.000001  -0.000049   0.000008  -0.000003   0.000004   0.000000
    29  N   -0.000000  -0.000000   0.000000  -0.000000  -0.000000  -0.000000
    30  N    0.000000  -0.000001  -0.000000   0.000000   0.000000   0.000000
    31  O    0.000030  -0.002537   0.000296  -0.000053   0.000000   0.000000
    32  O    0.000000   0.000000   0.000000   0.000000  -0.000791   0.000011
    33  H    0.000000   0.000000  -0.000000   0.000000   0.000193  -0.000002
    34  H   -0.000000  -0.000000   0.000000  -0.000000   0.000633   0.000010
               7          8          9         10         11         12
     1  O    0.000127  -0.000004   0.000025   0.004583  -0.000032  -0.000458
     2  O    0.000002  -0.000000  -0.003761  -0.000014  -0.000008   0.000013
     3  C   -0.000044   0.000001   0.000535  -0.000567   0.000024  -0.000095
     4  H    0.000001  -0.000000  -0.000051   0.000044  -0.000001   0.000001
     5  O    0.002858   0.000768   0.000003  -0.000081  -0.001973   0.001254
     6  O    0.001212   0.000552   0.000001   0.004482   0.000007  -0.000541
     7  C   -0.005581  -0.002033   0.000003  -0.001291   0.000416  -0.000196
     8  H   -0.002033  -0.000566   0.000000   0.000103  -0.000042   0.000031
     9  O    0.000003   0.000000   0.095149   0.000011   0.000019  -0.000052
    10  O   -0.001291   0.000103   0.000011  -0.107089   0.000502  -0.002530
    11  O    0.000416  -0.000042   0.000019   0.000502   0.105611   0.002594
    12  C   -0.000196   0.000031  -0.000052  -0.002530   0.002594  -0.004177
    13  H    0.000008   0.000004   0.000002  -0.000475  -0.000243   0.000716
    14  O    0.000040  -0.000001   0.000105   0.000001  -0.000000   0.000002
    15  O   -0.000531   0.000048   0.000005  -0.000832  -0.000002   0.000103
    16  C   -0.000086   0.000001  -0.000052   0.000120   0.000003  -0.000020
    17  H   -0.000013   0.000005   0.000002  -0.000003   0.000000   0.000001
    18  Fe  -0.000046   0.000005  -0.027057   0.000008   0.000081   0.000032
    19  O   -0.000030   0.000000  -0.003726   0.000001   0.000001   0.000002
    20  Fe   0.001020   0.000232   0.003952   0.002491  -0.040734  -0.000066
    21  O    0.000461  -0.000050  -0.000084   0.000006   0.000786  -0.000135
    22  O   -0.000098   0.000003  -0.002031   0.000045  -0.003586   0.000287
    23  Fe   0.006918  -0.000201  -0.000255   0.041066  -0.003921   0.004800
    24  O   -0.000351   0.000083   0.000887   0.003862  -0.002825  -0.000383
    25  C   -0.000019   0.000021   0.000577   0.000002  -0.000136   0.000019
    26  H    0.000003  -0.000002  -0.000046   0.000000   0.000003  -0.000001
    27  C    0.000001  -0.000001  -0.005633  -0.000024   0.000797   0.000025
    28  H   -0.000001   0.000000  -0.001131   0.000001  -0.000073   0.000021
    29  N    0.000000   0.000000   0.000060   0.000000   0.000000  -0.000000
    30  N    0.000000   0.000000   0.000142   0.000000  -0.000000   0.000000
    31  O    0.000000   0.000000  -0.001918   0.000000  -0.000000   0.000000
    32  O    0.000351  -0.000016   0.000000   0.000017  -0.002099   0.000262
    33  H    0.000036   0.000010  -0.000001   0.000008   0.001005  -0.000014
    34  H   -0.000031   0.000005  -0.000002  -0.000005   0.000048   0.000034
              13         14         15         16         17         18
     1  O    0.000064   0.000009   0.006161  -0.000758   0.000060   0.000994
     2  O   -0.000000  -0.004054   0.000137   0.001042  -0.000121  -0.038258
     3  C   -0.000017   0.000774  -0.001921   0.000023   0.000040   0.002402
     4  H    0.000003  -0.000047   0.000145   0.000009  -0.000000  -0.000151
     5  O   -0.000063  -0.000012  -0.000042   0.000022  -0.000002   0.000097
     6  O    0.000064  -0.000039   0.004404  -0.000503   0.000078   0.000097
     7  C    0.000008   0.000040  -0.000531  -0.000086  -0.000013  -0.000046
     8  H    0.000004  -0.000001   0.000048   0.000001   0.000005   0.000005
     9  O    0.000002   0.000105   0.000005  -0.000052   0.000002  -0.027057
    10  O   -0.000475   0.000001  -0.000832   0.000120  -0.000003   0.000008
    11  O   -0.000243  -0.000000  -0.000002   0.000003   0.000000   0.000081
    12  C    0.000716   0.000002   0.000103  -0.000020   0.000001   0.000032
    13  H    0.000476  -0.000000  -0.000004   0.000001  -0.000000   0.000003
    14  O   -0.000000   0.060869   0.000734   0.000982   0.001006  -0.029586
    15  O   -0.000004   0.000734  -0.146369  -0.001593   0.000431   0.001229
    16  C    0.000001   0.000982  -0.001593  -0.000200  -0.000242   0.000893
    17  H   -0.000000   0.001006   0.000431  -0.000242  -0.006536  -0.000150
    18  Fe   0.000003  -0.029586   0.001229   0.000893  -0.000150   3.489350
    19  O    0.000000  -0.004001   0.000019   0.000431  -0.000052  -0.037325
    20  Fe   0.000083  -0.000083  -0.000010   0.000056  -0.000004  -0.001100
    21  O    0.000004  -0.000025   0.000000   0.000012   0.000002   0.000962
    22  O   -0.000035   0.000002   0.000000  -0.000002   0.000000   0.001358
    23  Fe  -0.000142  -0.004148   0.046640   0.005627  -0.000239  -0.002913
    24  O    0.000034   0.001680   0.005127  -0.000487   0.000245  -0.007266
    25  C   -0.000001   0.000610  -0.000012  -0.000081   0.000017   0.002458
    26  H    0.000000  -0.000078   0.000000   0.000029  -0.000004  -0.000341
    27  C    0.000009  -0.000060   0.000002   0.000019  -0.000000  -0.000307
    28  H   -0.000002   0.000001   0.000000  -0.000000   0.000000  -0.000138
    29  N    0.000000   0.000000   0.000000  -0.000000   0.000000  -0.000116
    30  N   -0.000000  -0.000000   0.000000   0.000000   0.000000  -0.000731
    31  O   -0.000000  -0.001357   0.000082   0.000261  -0.000062  -0.139546
    32  O   -0.000034   0.000000   0.000000  -0.000000   0.000000  -0.000040
    33  H    0.000048  -0.000000  -0.000000   0.000000  -0.000000   0.000008
    34  H    0.000006   0.000000   0.000000  -0.000000   0.000000   0.000007
              19         20         21         22         23         24
     1  O    0.000001   0.000168   0.000000   0.000003   0.040762   0.005170
     2  O    0.000132  -0.000065  -0.000000  -0.000019  -0.003370   0.000327
     3  C   -0.000028   0.000035   0.000000   0.000009   0.008147  -0.001481
     4  H    0.000001   0.000001   0.000000   0.000000  -0.000374   0.000129
     5  O    0.000006  -0.043077  -0.002924   0.000688  -0.004078  -0.002664
     6  O    0.000005   0.002009   0.000032   0.000005   0.036882   0.004242
     7  C   -0.000030   0.001020   0.000461  -0.000098   0.006918  -0.000351
     8  H    0.000000   0.000232  -0.000050   0.000003  -0.000201   0.000083
     9  O   -0.003726   0.003952  -0.000084  -0.002031  -0.000255   0.000887
    10  O    0.000001   0.002491   0.000006   0.000045   0.041066   0.003862
    11  O    0.000001  -0.040734   0.000786  -0.003586  -0.003921  -0.002825
    12  C    0.000002  -0.000066  -0.000135   0.000287   0.004800  -0.000383
    13  H    0.000000   0.000083   0.000004  -0.000035  -0.000142   0.000034
    14  O   -0.004001  -0.000083  -0.000025   0.000002  -0.004148   0.001680
    15  O    0.000019  -0.000010   0.000000   0.000000   0.046640   0.005127
    16  C    0.000431   0.000056   0.000012  -0.000002   0.005627  -0.000487
    17  H   -0.000052  -0.000004   0.000002   0.000000  -0.000239   0.000245
    18  Fe  -0.037325  -0.001100   0.000962   0.001358  -0.002913  -0.007266
    19  O    0.113056   0.002605  -0.000931  -0.000393   0.000031   0.000752
    20  Fe   0.002605   4.529531  -0.044199  -0.050771  -0.000275  -0.091225
    21  O   -0.000931  -0.044199   0.170930  -0.004771   0.000020  -0.003980
    22  O   -0.000393  -0.050771  -0.004771   0.175085   0.000216  -0.003281
    23  Fe   0.000031  -0.000275   0.000020   0.000216  -4.498246   0.130584
    24  O    0.000752  -0.091225  -0.003980  -0.003281   0.130584  -0.120715
    25  C   -0.009071  -0.003904  -0.000167   0.001390   0.000106   0.001278
    26  H   -0.001552   0.000180  -0.003081  -0.000158   0.000011  -0.000093
    27  C    0.000149  -0.004712   0.000941  -0.001302   0.000118  -0.000043
    28  H   -0.000160  -0.000022  -0.000039  -0.002148   0.000010  -0.000159
    29  N    0.000031   0.000003  -0.000000  -0.000005  -0.000000  -0.000000
    30  N    0.000238   0.000013  -0.000007  -0.000032   0.000001  -0.000001
    31  O   -0.002686   0.000263   0.000013   0.000010  -0.000142  -0.000236
    32  O    0.000004  -0.028929  -0.003725  -0.002294  -0.000068   0.001099
    33  H   -0.000001  -0.001353  -0.000143   0.000120   0.000008  -0.000129
    34  H    0.000004  -0.001307   0.000528  -0.000105   0.000009  -0.000116
              25         26         27         28         29         30
     1  O    0.000002   0.000000  -0.000019   0.000001  -0.000000   0.000000
     2  O   -0.000016   0.000001   0.000390  -0.000049  -0.000000  -0.000001
     3  C   -0.000000  -0.000000  -0.000108   0.000008   0.000000  -0.000000
     4  H   -0.000000   0.000000   0.000019  -0.000003  -0.000000   0.000000
     5  O    0.000371  -0.000039  -0.000097   0.000004  -0.000000   0.000000
     6  O    0.000002   0.000001   0.000000   0.000000  -0.000000   0.000000
     7  C   -0.000019   0.000003   0.000001  -0.000001   0.000000   0.000000
     8  H    0.000021  -0.000002  -0.000001   0.000000   0.000000   0.000000
     9  O    0.000577  -0.000046  -0.005633  -0.001131   0.000060   0.000142
    10  O    0.000002   0.000000  -0.000024   0.000001   0.000000   0.000000
    11  O   -0.000136   0.000003   0.000797  -0.000073   0.000000  -0.000000
    12  C    0.000019  -0.000001   0.000025   0.000021  -0.000000   0.000000
    13  H   -0.000001   0.000000   0.000009  -0.000002   0.000000  -0.000000
    14  O    0.000610  -0.000078  -0.000060   0.000001   0.000000  -0.000000
    15  O   -0.000012   0.000000   0.000002   0.000000   0.000000   0.000000
    16  C   -0.000081   0.000029   0.000019  -0.000000  -0.000000   0.000000
    17  H    0.000017  -0.000004  -0.000000   0.000000   0.000000   0.000000
    18  Fe   0.002458  -0.000341  -0.000307  -0.000138  -0.000116  -0.000731
    19  O   -0.009071  -0.001552   0.000149  -0.000160   0.000031   0.000238
    20  Fe  -0.003904   0.000180  -0.004712  -0.000022   0.000003   0.000013
    21  O   -0.000167  -0.003081   0.000941  -0.000039  -0.000000  -0.000007
    22  O    0.001390  -0.000158  -0.001302  -0.002148  -0.000005  -0.000032
    23  Fe   0.000106   0.000011   0.000118   0.000010  -0.000000   0.000001
    24  O    0.001278  -0.000093  -0.000043  -0.000159  -0.000000  -0.000001
    25  C    0.010862  -0.001753  -0.000343   0.000072  -0.000007   0.000021
    26  H   -0.001753   0.025075   0.000045  -0.000009   0.000012  -0.000005
    27  C   -0.000343   0.000045   0.011937  -0.003757  -0.000028   0.000038
    28  H    0.000072  -0.000009  -0.003757   0.023535   0.000007   0.000055
    29  N   -0.000007   0.000012  -0.000028   0.000007  -0.004654   0.003400
    30  N    0.000021  -0.000005   0.000038   0.000055   0.003400  -0.000838
    31  O    0.000549  -0.000054   0.000331  -0.000082   0.000181   0.000266
    32  O    0.000118  -0.000043  -0.000001  -0.000035  -0.000000   0.000000
    33  H    0.000020   0.000001  -0.000000   0.000007  -0.000000  -0.000000
    34  H   -0.000030   0.000015   0.000013   0.000001   0.000000  -0.000000
              31         32         33         34
     1  O    0.000030   0.000000   0.000000  -0.000000
     2  O   -0.002537   0.000000   0.000000  -0.000000
     3  C    0.000296   0.000000  -0.000000   0.000000
     4  H   -0.000053   0.000000   0.000000  -0.000000
     5  O    0.000000  -0.000791   0.000193   0.000633
     6  O    0.000000   0.000011  -0.000002   0.000010
     7  C    0.000000   0.000351   0.000036  -0.000031
     8  H    0.000000  -0.000016   0.000010   0.000005
     9  O   -0.001918   0.000000  -0.000001  -0.000002
    10  O    0.000000   0.000017   0.000008  -0.000005
    11  O   -0.000000  -0.002099   0.001005   0.000048
    12  C    0.000000   0.000262  -0.000014   0.000034
    13  H   -0.000000  -0.000034   0.000048   0.000006
    14  O   -0.001357   0.000000  -0.000000   0.000000
    15  O    0.000082   0.000000  -0.000000   0.000000
    16  C    0.000261  -0.000000   0.000000  -0.000000
    17  H   -0.000062   0.000000  -0.000000   0.000000
    18  Fe  -0.139546  -0.000040   0.000008   0.000007
    19  O   -0.002686   0.000004  -0.000001   0.000004
    20  Fe   0.000263  -0.028929  -0.001353  -0.001307
    21  O    0.000013  -0.003725  -0.000143   0.000528
    22  O    0.000010  -0.002294   0.000120  -0.000105
    23  Fe  -0.000142  -0.000068   0.000008   0.000009
    24  O   -0.000236   0.001099  -0.000129  -0.000116
    25  C    0.000549   0.000118   0.000020  -0.000030
    26  H   -0.000054  -0.000043   0.000001   0.000015
    27  C    0.000331  -0.000001  -0.000000   0.000013
    28  H   -0.000082  -0.000035   0.000007   0.000001
    29  N    0.000181  -0.000000  -0.000000   0.000000
    30  N    0.000266   0.000000  -0.000000  -0.000000
    31  O    0.715778   0.000000  -0.000000  -0.000000
    32  O    0.000000   0.073242  -0.000334  -0.000241
    33  H   -0.000000  -0.000334   0.000742   0.000036
    34  H   -0.000000  -0.000241   0.000036   0.000987
 Mulliken charges and spin densities:
               1          2
     1  O   -0.548424  -0.097674
     2  O   -0.515573   0.028401
     3  C    0.689853   0.008202
     4  H    0.054089  -0.002997
     5  O   -0.585539   0.046316
     6  O   -0.535982  -0.068858
     7  C    0.695929   0.003106
     8  H    0.050653  -0.001043
     9  O   -0.492566   0.055676
    10  O   -0.543763  -0.055558
    11  O   -0.594094   0.056221
    12  C    0.688929   0.001527
    13  H    0.050881   0.000506
    14  O   -0.490854   0.023325
    15  O   -0.556267  -0.086049
    16  C    0.680057   0.005511
    17  H    0.055156  -0.005543
    18  Fe   1.006828   3.214910
    19  O   -0.528101   0.057514
    20  Fe   0.994753   4.230805
    21  O   -0.561442   0.110439
    22  O   -0.563534   0.108188
    23  Fe   0.995566  -4.196419
    24  O   -0.702233  -0.079937
[...]
 Hirshfeld charges and spin densities with hydrogens summed into heavy atoms:
              Q-H        S-H       Q-CM5   
     1  O   -0.231860  -0.117097  -0.341703
     2  O   -0.206104   0.048262  -0.302140
     3  C    0.248178  -0.006762   0.332334
     5  O   -0.239700   0.066359  -0.338970
     6  O   -0.226009  -0.090488  -0.330458
     7  C    0.240589  -0.003699   0.325297
     9  O   -0.195703   0.067183  -0.297624
    10  O   -0.225516  -0.080646  -0.326863
    11  O   -0.238149   0.075209  -0.341286
    12  C    0.239954  -0.001595   0.324998
    14  O   -0.197673   0.041873  -0.299863
    15  O   -0.229617  -0.108631  -0.337740
    16  C    0.251899  -0.010124   0.336709
    18  Fe   0.449131   3.154336   0.876855
    19  O   -0.207559   0.070486  -0.303262
    20  Fe   0.530873   4.081751   0.887315
    21  O   -0.235532   0.125073  -0.344993
    22  O   -0.225857   0.126047  -0.336891
    23  Fe   0.563794  -4.040714   0.915078
    24  O   -0.313640  -0.049220  -0.536716
    25  C    0.243330   0.030926   0.328489
    27  C    0.251365   0.028147   0.337155
    29  N    0.007522   0.000703   0.006547
    30  N    0.001101   0.000779  -0.001688
    31  O   -0.231919   0.534889  -0.385574
    32  O    0.177085   0.056951   0.154976
         Hirshfeld charges and spin densities condensed to fragments:
      1     -1.183964      0.260521
      2      0.008623      0.001483
      3     -0.313640     -0.049220
      4      0.449131      3.154336
      5      0.530873      4.081751
      6      0.563794     -4.040714
      7     -0.231919      0.534889
      8      0.177085      0.056951
 
 EQQ= -1.49527948986     EQD=-0.169208084598     EDD= 0.299477018633E-02
 EQQ+QD+DD= -1.66149280427    
 
                          Isotropic Fermi Contact Couplings
        Atom                 a.u.       MegaHertz       Gauss      10(-4) cm-1
     1  O(17)             -0.08728      13.22717       4.71978       4.41211
     2  O(17)              0.08760     -13.27528      -4.73695      -4.42816
     3  C(13)              0.00282       0.79248       0.28278       0.26434
     4  H(1)              -0.00186      -2.07767      -0.74137      -0.69304
     5  O(17)              0.09277     -14.05888      -5.01656      -4.68954
     6  O(17)             -0.08060      12.21482       4.35855       4.07443
     7  C(13)              0.00032       0.08869       0.03165       0.02958
     8  H(1)              -0.00066      -0.74215      -0.26482      -0.24755
     9  O(17)              0.07125     -10.79844      -3.85315      -3.60197
    10  O(17)             -0.09476      14.36064       5.12423       4.79019
    11  O(17)              0.08352     -12.65742      -4.51648      -4.22206
    12  C(13)             -0.00239      -0.67280      -0.24007      -0.22442
    13  H(1)               0.00027       0.30104       0.10742       0.10042
    14  O(17)              0.06200      -9.39670      -3.35298      -3.13440
    15  O(17)             -0.10581      16.03591       5.72201       5.34900
    16  C(13)              0.00150       0.42137       0.15036       0.14055
    17  H(1)              -0.00270      -3.01689      -1.07650      -1.00633
    18  Fe(57)             0.23095       8.37411       2.98809       2.79330
    19  O(17)              0.09303     -14.09901      -5.03088      -4.70292
    20  Fe(57)             0.57966      21.01839       7.49988       7.01098
    21  O(17)              0.10581     -16.03476      -5.72160      -5.34862
    22  O(17)              0.11953     -18.11520      -6.46396      -6.04258
    23  Fe(57)            -0.62038     -22.49504      -8.02679      -7.50354
    24  O(17)              0.00294      -0.44509      -0.15882      -0.14847
    25  C(13)             -0.00373      -1.04758      -0.37380      -0.34943
    26  H(1)               0.00790       8.82341       3.14841       2.94317
    27  C(13)             -0.00210      -0.59120      -0.21096      -0.19720
    28  H(1)               0.00652       7.28145       2.59820       2.42883
    29  N(14)              0.00087       0.07008       0.02501       0.02338
    30  N(14)              0.00055       0.04456       0.01590       0.01486
    31  O(17)              0.12510     -18.95818      -6.76475      -6.32377
    32  O(17)              0.06016      -9.11651      -3.25300      -3.04094
    33  H(1)              -0.00028      -0.31743      -0.11327      -0.10588
    34  H(1)              -0.00016      -0.18099      -0.06458      -0.06037
 --------------------------------------------------------
       Center         ----  Spin Dipole Couplings  ----
                      3XX-RR        3YY-RR        3ZZ-RR
 --------------------------------------------------------
     1   Atom        0.245796     -0.077032     -0.168764
     2   Atom       -0.124826      0.052504      0.072322
     3   Atom        0.004389     -0.009752      0.005363
     4   Atom        0.002897     -0.002110     -0.000787
     5   Atom        0.093758     -0.128685      0.034927
     6   Atom       -0.049525      0.142366     -0.092841
     7   Atom        0.055649     -0.047512     -0.008137
     8   Atom        0.019679     -0.015527     -0.004152
     9   Atom       -0.027657     -0.083902      0.111559
    10   Atom        0.047236      0.083206     -0.130443
    11   Atom       -0.041676     -0.149373      0.191049
    12   Atom        0.046818     -0.048834      0.002016
    13   Atom        0.015279     -0.016464      0.001185
    14   Atom       -0.130505     -0.008362      0.138866
    15   Atom        0.202816     -0.076511     -0.126305
    16   Atom        0.011840      0.006890     -0.018730
    17   Atom        0.005757      0.001358     -0.007115
    18   Atom       -1.581426      0.094453      1.486973
    19   Atom       -0.040118     -0.036957      0.077075
    20   Atom        0.074264     -0.152137      0.077873
    21   Atom       -0.103909     -0.159729      0.263638
    22   Atom        0.067991     -0.142328      0.074337
    23   Atom        0.141804     -0.070293     -0.071511
    24   Atom       -0.305048      0.309704     -0.004656
    25   Atom       -0.005093     -0.000468      0.005561
    26   Atom       -0.005855     -0.006889      0.012744
    27   Atom       -0.020165      0.015963      0.004202
    28   Atom       -0.004424     -0.005479      0.009904
    29   Atom        0.015307     -0.005579     -0.009728
    30   Atom        0.017767     -0.004877     -0.012890
    31   Atom       -1.226741      0.108783      1.117958
    32   Atom       -0.129683      0.283179     -0.153495
    33   Atom       -0.025646      0.049845     -0.024198
    34   Atom       -0.030037      0.047930     -0.017893
 --------------------------------------------------------
                        XY            XZ            YZ
 --------------------------------------------------------
     1   Atom        0.064546      0.026998     -0.292892
     2   Atom       -0.069957     -0.038803      0.189248
     3   Atom       -0.052918     -0.052324     -0.017433
     4   Atom       -0.017576     -0.017575     -0.003787
     5   Atom        0.109411      0.203057      0.089036
     6   Atom       -0.141383     -0.232532     -0.123880
     7   Atom       -0.029686      0.021081     -0.047472
     8   Atom       -0.007949      0.007271     -0.014215
     9   Atom       -0.039482      0.102971     -0.056822
    10   Atom       -0.106202      0.182802      0.144872
    11   Atom        0.102601     -0.201154     -0.126425
    12   Atom       -0.010323     -0.041759      0.046344
    13   Atom       -0.003000     -0.013567      0.014111
    14   Atom       -0.067727      0.067763     -0.141625
    15   Atom        0.043491     -0.073990      0.253529
    16   Atom       -0.036585      0.062748      0.009770
    17   Atom       -0.014505      0.019778      0.003328
    18   Atom       -2.011330      0.075581      0.334434
    19   Atom       -0.095727     -0.114661      0.085729
    20   Atom       -0.000518      0.017880      0.002045
    21   Atom       -0.113839     -0.204161      0.129575
    22   Atom       -0.108822      0.210148     -0.159206
    23   Atom       -0.045681      0.004551      0.033174
    24   Atom        0.185013     -0.009196     -0.025930
    25   Atom        0.036504     -0.034946      0.011405
    26   Atom        0.002867     -0.018530      0.007986
    27   Atom        0.027926      0.040390      0.000009
    28   Atom        0.001846      0.020424     -0.007024
    29   Atom       -0.003873     -0.002520      0.000444
    30   Atom       -0.008179      0.001507     -0.000677
    31   Atom       -1.574325      0.142675      0.075970
    32   Atom        0.003674      0.003690      0.003660
    33   Atom        0.036146     -0.016322     -0.027644
    34   Atom        0.030586      0.015934      0.033021
 --------------------------------------------------------


 ---------------------------------------------------------------------------------
              Anisotropic Spin Dipole Couplings in Principal Axis System
 ---------------------------------------------------------------------------------

       Atom             a.u.   MegaHertz   Gauss  10(-4) cm-1        Axes

              Baa    -0.4252    30.767    10.978    10.263 -0.0929  0.6510  0.7534
     1 O(17)  Bbb     0.1625   -11.761    -4.197    -3.923 -0.3302  0.6937 -0.6402
              Bcc     0.2627   -19.005    -6.782    -6.339  0.9393  0.3082 -0.1505
 
              Baa    -0.1578    11.420     4.075     3.809  0.7794  0.5420 -0.3143
     2 O(17)  Bbb    -0.1090     7.888     2.815     2.631  0.5964 -0.4882  0.6371
              Bcc     0.2668   -19.308    -6.890    -6.441 -0.1919  0.6840  0.7038
 
              Baa    -0.0834   -11.187    -3.992    -3.732  0.6457  0.5814  0.4950
     3 C(13)  Bbb     0.0152     2.041     0.728     0.681 -0.1055  0.7100 -0.6962
              Bcc     0.0682     9.146     3.264     3.051  0.7562 -0.3973 -0.5198
 
              Baa    -0.0264   -14.067    -5.019    -4.692  0.6473  0.5513  0.5264
     4 H(1)   Bbb     0.0023     1.248     0.445     0.416  0.0264 -0.7064  0.7073
              Bcc     0.0240    12.819     4.574     4.276  0.7618 -0.4439 -0.4718
 
              Baa    -0.1741    12.594     4.494     4.201 -0.3072  0.9459 -0.1045
     5 O(17)  Bbb    -0.1403    10.155     3.623     3.387 -0.6195 -0.1154  0.7764
              Bcc     0.3144   -22.749    -8.117    -7.588  0.7224  0.3033  0.6215
 
              Baa    -0.3726    26.960     9.620     8.993  0.6429  0.3415  0.6856
     6 O(17)  Bbb     0.1553   -11.237    -4.010    -3.748 -0.6090 -0.3150  0.7279
              Bcc     0.2173   -15.723    -5.610    -5.245 -0.4645  0.8856 -0.0055
 
              Baa    -0.0806   -10.811    -3.858    -3.606  0.1031  0.8454  0.5241
     7 C(13)  Bbb     0.0026     0.346     0.123     0.115 -0.5233 -0.4020  0.7514
              Bcc     0.0780    10.465     3.734     3.491  0.8459 -0.3518  0.4009
 
              Baa    -0.0253   -13.500    -4.817    -4.503  0.0604  0.8379  0.5424
     8 H(1)   Bbb    -0.0000    -0.015    -0.005    -0.005 -0.4643 -0.4575  0.7584
              Bcc     0.0253    13.515     4.823     4.508  0.8836 -0.2977  0.3614
 
              Baa    -0.1044     7.555     2.696     2.520  0.4085  0.9117  0.0451
     9 O(17)  Bbb    -0.0795     5.751     2.052     1.918  0.7878 -0.3271 -0.5219
              Bcc     0.1839   -13.306    -4.748    -4.438  0.4610 -0.2487  0.8518
 
              Baa    -0.3238    23.428     8.360     7.815 -0.4947 -0.4032  0.7699
    10 O(17)  Bbb     0.1498   -10.842    -3.869    -3.617  0.4501  0.6389  0.6238
              Bcc     0.1739   -12.586    -4.491    -4.198  0.7434 -0.6552  0.1346
 
              Baa    -0.2115    15.304     5.461     5.105 -0.4943  0.8689  0.0259
    11 O(17)  Bbb    -0.1466    10.610     3.786     3.539  0.7186  0.3916  0.5747
              Bcc     0.3581   -25.914    -9.247    -8.644 -0.4892 -0.3027  0.8180
 
              Baa    -0.0777   -10.424    -3.720    -3.477 -0.1132  0.8320 -0.5431
    12 C(13)  Bbb    -0.0031    -0.422    -0.150    -0.141  0.6171  0.4873  0.6179
              Bcc     0.0808    10.846     3.870     3.618  0.7787 -0.2652 -0.5686
 
              Baa    -0.0247   -13.196    -4.709    -4.402 -0.1129  0.8466 -0.5201
    13 H(1)   Bbb    -0.0013    -0.686    -0.245    -0.229  0.6080  0.4728  0.6378
              Bcc     0.0260    13.882     4.954     4.631  0.7859 -0.2442 -0.5681
 
              Baa    -0.1607    11.631     4.150     3.880  0.9224  0.3854 -0.0264
    14 O(17)  Bbb    -0.0871     6.303     2.249     2.103 -0.3029  0.7640  0.5697
              Bcc     0.2479   -17.935    -6.399    -5.982  0.2397 -0.5174  0.8215
 
              Baa    -0.3685    26.666     9.515     8.895  0.1456 -0.6609  0.7362
    15 O(17)  Bbb     0.1488   -10.770    -3.843    -3.593  0.2489  0.7447  0.6193
              Bcc     0.2197   -15.896    -5.672    -5.302  0.9575 -0.0930 -0.2729
 
              Baa    -0.0792   -10.623    -3.791    -3.543 -0.6228 -0.3445  0.7024
    16 C(13)  Bbb     0.0089     1.196     0.427     0.399  0.0855  0.8625  0.4989
              Bcc     0.0702     9.427     3.364     3.144  0.7777 -0.3708  0.5077
 
              Baa    -0.0264   -14.074    -5.022    -4.694 -0.6045 -0.3989  0.6896
    17 H(1)   Bbb     0.0016     0.869     0.310     0.290  0.1160  0.8123  0.5716
              Bcc     0.0247    13.205     4.712     4.405  0.7881 -0.4255  0.4448
 
              Baa    -2.9364   -50.837   -18.140   -16.957  0.8290  0.5564 -0.0562
    18 Fe(57) Bbb     1.2300    21.294     7.598     7.103  0.4510 -0.6057  0.6556
              Bcc     1.7064    29.543    10.542     9.854 -0.3307  0.5688  0.7530
 
              Baa    -0.1384    10.016     3.574     3.341  0.7883  0.5865  0.1861
    19 O(17)  Bbb    -0.0713     5.161     1.842     1.722 -0.3454  0.6720 -0.6551
              Bcc     0.2097   -15.177    -5.415    -5.062 -0.5093  0.4521  0.7323
 
              Baa    -0.1522    -2.634    -0.940    -0.879  0.0030  1.0000 -0.0091
    20 Fe(57) Bbb     0.0581     1.006     0.359     0.336  0.7419 -0.0083 -0.6704
              Bcc     0.0940     1.628     0.581     0.543  0.6705  0.0048  0.7419
 
              Baa    -0.2512    18.175     6.485     6.062  0.6830  0.7251  0.0884
    21 O(17)  Bbb    -0.1519    10.994     3.923     3.667 -0.6030  0.6280 -0.4920
              Bcc     0.4031   -29.169   -10.408    -9.730 -0.4122  0.2828  0.8661
 
              Baa    -0.2266    16.396     5.851     5.469 -0.0140  0.8798  0.4752
    22 O(17)  Bbb    -0.1276     9.235     3.295     3.081  0.7706  0.3124 -0.5556
              Bcc     0.3542   -25.631    -9.146    -8.550  0.6372 -0.3584  0.6823
 
              Baa    -0.1093    -1.892    -0.675    -0.631  0.1457  0.7346 -0.6627
    23 Fe(57) Bbb    -0.0420    -0.727    -0.259    -0.242  0.1424  0.6473  0.7488
              Bcc     0.1512     2.619     0.934     0.873  0.9790 -0.2034 -0.0103
 
              Baa    -0.3564    25.792     9.203     8.603  0.9636 -0.2674  0.0055
    24 O(17)  Bbb    -0.0067     0.484     0.173     0.162  0.0146  0.0732  0.9972
              Bcc     0.3631   -26.276    -9.376    -8.765  0.2671  0.9608 -0.0744
 
              Baa    -0.0577    -7.737    -2.761    -2.581  0.6929 -0.5380  0.4801
    25 C(13)  Bbb     0.0140     1.881     0.671     0.627  0.0600  0.7065  0.7052
              Bcc     0.0436     5.856     2.090     1.953  0.7186  0.4598 -0.5218
 
              Baa    -0.0206   -11.013    -3.930    -3.673  0.7306 -0.4504  0.5132
    26 H(1)   Bbb    -0.0044    -2.370    -0.846    -0.791  0.4704  0.8768  0.0998
              Bcc     0.0251    13.383     4.775     4.464 -0.4949  0.1686  0.8524
 
              Baa    -0.0573    -7.692    -2.745    -2.566  0.7965 -0.3035 -0.5229
    27 C(13)  Bbb     0.0117     1.574     0.562     0.525 -0.1167  0.7714 -0.6255
              Bcc     0.0456     6.118     2.183     2.041  0.5932  0.5593  0.5790
 
              Baa    -0.0210   -11.189    -3.992    -3.732  0.7437 -0.3476 -0.5711
    28 H(1)   Bbb    -0.0041    -2.209    -0.788    -0.737  0.3720  0.9249 -0.0784
              Bcc     0.0251    13.398     4.781     4.469  0.5554 -0.1541  0.8172
 
              Baa    -0.0100    -0.385    -0.137    -0.128  0.0968 -0.0153  0.9952
    29 N(14)  Bbb    -0.0063    -0.242    -0.086    -0.081  0.1764  0.9843 -0.0020
              Bcc     0.0163     0.627     0.224     0.209  0.9795 -0.1757 -0.0980
 
              Baa    -0.0130    -0.500    -0.179    -0.167 -0.0365  0.0466  0.9982
    30 N(14)  Bbb    -0.0075    -0.290    -0.103    -0.097  0.3094  0.9504 -0.0330
              Bcc     0.0205     0.790     0.282     0.264  0.9502 -0.3077  0.0491
 
              Baa    -2.2767   164.740    58.783    54.951  0.8330  0.5513 -0.0473
    31 O(17)  Bbb     1.1183   -80.923   -28.875   -26.993 -0.1990  0.3784  0.9040
              Bcc     1.1583   -83.817   -29.908   -27.958 -0.5162  0.7436 -0.4249
 
              Baa    -0.1541    11.149     3.978     3.719 -0.1485 -0.0070  0.9889
    32 O(17)  Bbb    -0.1292     9.346     3.335     3.118  0.9889 -0.0101  0.1485
              Bcc     0.2832   -20.495    -7.313    -6.836  0.0090  0.9999  0.0085
 
              Baa    -0.0427   -22.800    -8.136    -7.605  0.8632 -0.1984  0.4642
    33 H(1)   Bbb    -0.0318   -16.991    -6.063    -5.668 -0.3470  0.4348  0.8310
              Bcc     0.0746    39.791    14.198    13.273  0.3667  0.8784 -0.3064
 
              Baa    -0.0422   -22.537    -8.042    -7.518  0.9174 -0.1814 -0.3543
    34 H(1)   Bbb    -0.0309   -16.463    -5.874    -5.491  0.2417 -0.4534  0.8579
              Bcc     0.0731    39.000    13.916    13.009  0.3163  0.8726  0.3721
 

 ---------------------------------------------------------------------------------

 Unable to Open any file for archive entry.
 1\1\GINC-NODE1132\SP\UM06L\def2TZVP\C6H8Fe3N2O15(5)\SVICCHI\03-Apr-202
 3\0\\# SP Geom=AllCheckpoint um06l/Def2TZVP int=grid=ultrafine scf=(xq
 c,intrep,maxconventionalcycle=1000) pop=(CM5) nosymm guess=read\\FeFeF
 e-B-0xH2O\\0,5\O,0,1.719299,-2.121416,-1.58716\O,0,-0.476982,-2.495739
 ,-1.214444\C,0,0.60347,-2.691674,-1.787175\H,0,0.618079,-3.461158,-2.5
 78246\O,0,1.890722,2.147768,1.159944\O,0,3.038791,0.210968,1.172216\C,
 0,2.821748,1.395867,1.523514\H,0,3.545289,1.819699,2.240758\O,0,-2.147
 334,-0.106827,-1.496866\O,0,2.700282,0.475697,-1.566819\O,0,1.361445,2
 .282339,-1.619333\C,0,2.316544,1.573004,-2.021967\H,0,2.885238,1.96942
 7,-2.880717\O,0,-0.561258,-2.092988,1.707679\O,0,1.641641,-2.191137,1.
 219534\C,0,0.614516,-2.444745,1.906501\H,0,0.788877,-3.066072,2.801842
 \Fe,0,-1.413309,-1.139251,0.109271\O,0,-2.200113,0.271216,1.46108\Fe,0
 ,0.12895,1.914114,0.013878\O,0,-0.904099,2.104849,1.697957\O,0,-1.4639
 91,2.017276,-1.149819\Fe,0,1.890613,-0.775712,-0.159116\O,0,0.227856,0
 .017067,-0.01878\C,0,-1.839186,1.314437,2.023374\H,0,-2.401164,1.61298
 4,2.925989\C,0,-2.107622,1.108608,-1.747308\H,0,-2.717752,1.449683,-2.
 600897\N,0,-5.545114,-0.10034,0.508588\N,0,-4.982586,0.627297,-0.08580
 7\O,0,-2.746357,-2.050465,0.200371\O,0,0.260095,4.095051,0.066221\H,0,
 0.863019,4.302013,-0.66014\H,0,0.748892,4.292809,0.875454\\Version=ES6
 4L-G16RevC.02\HF=-5263.2982506\S2=10.887364\S2-1=0.\S2A=20.512191\RMSD
 =3.432e-09\Dipole=1.7908987,2.1240291,-0.0469863\Quadrupole=-9.9116088
 ,5.9411259,3.9704829,1.015545,1.8425037,0.6463417\PG=C01 [X(C6H8Fe3N2O
 15)]\\@
 The archive entry for this job was punched.


 TO BEHOLD HARMS OF OUR OWN HANDS DOING,
 WHERE NONE BESIDE US WROUGHT,
 CAUSES SHARP RUING...

                                         SOPHOCLES
 Job cpu time:       0 days  2 hours 28 minutes 53.8 seconds.
 Elapsed time:       0 days  1 hours 18 minutes 16.3 seconds.
 File lengths (MBytes):  RWF=    749 Int=      0 D2E=      0 Chk=    250 Scr=      1
 Normal termination of Gaussian 16 at Mon Apr  3 22:15:44 2023.
