 Entering Gaussian System, Link 0=g16
 Input=FeFeFe-AO-1xH2O-opt.gjf
 Output=FeFeFe-AO-1xH2O-opt.log
 AtFile(1): /zfs/curium/svicchi/00-MOF/01-Gaussian/zw-basis-set/def2-TZVP/H.gbs
            !----------------------------------------------------------------------
            ! Basis Set Exchange
            ! Version v0.9
            ! https://www.basissetexchange.org
            !----------------------------------------------------------------------
            !   Basis set: def2-TZVP
            ! Description: def2-TZVP
            !        Role: orbital
            !     Version: 1  (Data from Turbomole 7.3)
            !----------------------------------------------------------------------
            H     0
            S    3   1.00
                 34.0613410              0.60251978D-02
                  5.1235746              0.45021094D-01
                  1.1646626              0.20189726
            S    1   1.00
                  0.32723041             1.0000000
            S    1   1.00
                  0.10307241             1.0000000
            P    1   1.00
                  0.8000000              1.0000000
 AtFile(1): /zfs/curium/svicchi/00-MOF/01-Gaussian/zw-basis-set/def2-TZVP/O.gbs
            !----------------------------------------------------------------------
            ! Basis Set Exchange
            ! Version v0.9
            ! https://www.basissetexchange.org
            !----------------------------------------------------------------------
            !   Basis set: def2-TZVP
            ! Description: def2-TZVP
            !        Role: orbital
            !     Version: 1  (Data from Turbomole 7.3)
            !----------------------------------------------------------------------
            O     0
            S    6   1.00
              27032.3826310              0.21726302465D-03
               4052.3871392              0.16838662199D-02
                922.32722710             0.87395616265D-02
                261.24070989             0.35239968808D-01
                 85.354641351            0.11153519115
                 31.035035245            0.25588953961
            S    2   1.00
                 12.260860728            0.39768730901
                  4.9987076005           0.24627849430
            S    1   1.00
                  1.1703108158           1.0000000
            S    1   1.00
                  0.46474740994          1.0000000
            S    1   1.00
                  0.18504536357          1.0000000
            P    4   1.00
                 63.274954801            0.60685103418D-02
                 14.627049379            0.41912575824D-01
                  4.4501223456           0.16153841088
                  1.5275799647           0.35706951311
            P    1   1.00
                  0.52935117943           .44794207502
            P    1   1.00
                  0.17478421270           .24446069663
            D    1   1.00
                  2.31400000             1.0000000
            D    1   1.00
                  0.64500000             1.0000000
            F    1   1.00
                  1.42800000             1.0000000
 AtFile(1): /zfs/curium/svicchi/00-MOF/01-Gaussian/zw-basis-set/def2-TZVP/C.gbs
            !----------------------------------------------------------------------
            ! Basis Set Exchange
            ! Version v0.9
            ! https://www.basissetexchange.org
            !----------------------------------------------------------------------
            !   Basis set: def2-TZVP
            ! Description: def2-TZVP
            !        Role: orbital
            !     Version: 1  (Data from Turbomole 7.3)
            !----------------------------------------------------------------------
            C     0
            S    6   1.00
              13575.3496820              0.22245814352D-03
               2035.2333680              0.17232738252D-02
                463.22562359             0.89255715314D-02
                131.20019598             0.35727984502D-01
                 42.853015891            0.11076259931
                 15.584185766            0.24295627626
            S    2   1.00
                  6.2067138508           0.41440263448
                  2.5764896527           0.23744968655
            S    1   1.00
                  0.57696339419          1.0000000
            S    1   1.00
                  0.22972831358          1.0000000
            S    1   1.00
                  0.95164440028D-01      1.0000000
            P    4   1.00
                 34.697232244            0.53333657805D-02
                  7.9582622826           0.35864109092D-01
                  2.3780826883           0.14215873329
                  0.81433208183          0.34270471845
            P    1   1.00
                  0.28887547253           .46445822433
            P    1   1.00
                  0.10056823671           .24955789874
            D    1   1.00
                  1.09700000             1.0000000
            D    1   1.00
                  0.31800000             1.0000000
            F    1   1.00
                  0.76100000             1.0000000
 AtFile(1): /zfs/curium/svicchi/00-MOF/01-Gaussian/zw-basis-set/def2-TZVP/Fe.gbs
            !----------------------------------------------------------------------
            ! Basis Set Exchange
            ! Version v0.9
            ! https://www.basissetexchange.org
            !----------------------------------------------------------------------
            !   Basis set: def2-TZVP
            ! Description: def2-TZVP
            !        Role: orbital
            !     Version: 1  (Data from Turbomole 7.3)
            !----------------------------------------------------------------------
            Fe     0
            S    8   1.00
             300784.8463700              0.22806273096D-03
              45088.9705570              0.17681788761D-02
              10262.5163170              0.91927083490D-02
               2905.2897293              0.37355495807D-01
                946.11487137             0.12151108426
                339.87832894             0.28818881468
                131.94425588             0.41126612677
                 52.111494077            0.21518583573
            S    4   1.00
                329.48839267            -0.24745216477D-01
                101.92332739            -0.11683089050
                 16.240462745            0.55293621136
                  6.8840675801           0.53601640182
            S    2   1.00
                 10.470693782           -0.22912708577
                  1.7360039648           0.71159319984
            S    1   1.00
                  0.72577288979          1.0000000
            S    1   1.00
                  0.11595528203          1.0000000
            S    1   1.00
                  0.41968227746D-01      1.0000000
            P    6   1.00
               1585.3959970              0.23793960179D-02
                375.38006499             0.19253154755D-01
                120.31816501             0.90021836536D-01
                 44.788749031            0.25798172356
                 17.829278584            0.41492649744
                  7.2247153786           0.24207474784
            P    3   1.00
                 28.143219756           -0.29041755152D-01
                  3.8743241412           0.55312260343
                  1.5410752281           0.96771136842
            P    1   1.00
                  0.58285615250          1.0000000
            P    1   1.00
                  0.1349150              1.0000000
            D    4   1.00
                 61.996675034            0.11971972255D-01
                 17.873732552            0.73210135410D-01
                  6.2744782934           0.23103094314
                  2.3552337175           0.39910706494
            D    1   1.00
                  0.85432239901           .41391589765
            D    1   1.00
                  0.27869254413           .21909269782
            D    1   1.00
                  0.0910000              1.0000000
            F    1   1.00
                  1.5980000              1.0000000
 AtFile(1): /zfs/curium/svicchi/00-MOF/01-Gaussian/zw-basis-set/def2-TZVP/N.gbs
            !----------------------------------------------------------------------
            ! Basis Set Exchange
            ! Version v0.9
            ! https://www.basissetexchange.org
            !----------------------------------------------------------------------
            !   Basis set: def2-TZVP
            ! Description: def2-TZVP
            !        Role: orbital
            !     Version: 1  (Data from Turbomole 7.3)
            !----------------------------------------------------------------------
            N     0
            S    6   1.00
              19730.8006470              0.21887984991D-03
               2957.8958745              0.16960708803D-02
                673.22133595             0.87954603538D-02
                190.68249494             0.35359382605D-01
                 62.295441898            0.11095789217
                 22.654161182            0.24982972552
            S    2   1.00
                  8.9791477428           0.40623896148
                  3.6863002370           0.24338217176
            S    1   1.00
                  0.84660076805          1.0000000
            S    1   1.00
                  0.33647133771          1.0000000
            S    1   1.00
                  0.13647653675          1.0000000
            P    4   1.00
                 49.200380510            0.55552416751D-02
                 11.346790537            0.38052379723D-01
                  3.4273972411           0.14953671029
                  1.1785525134           0.34949305230
            P    1   1.00
                  0.41642204972           .45843153697
            P    1   1.00
                  0.14260826011           .24428771672
            D    1   1.00
                  1.65400000             1.0000000
            D    1   1.00
                  0.46900000             1.0000000
            F    1   1.00
                  1.09300000             1.0000000
 Initial command:
 /software/commercial/gaussian/g16/AVX2/g16/l1.exe "/scratch1/svicchi/G09-79393.pbs02/Gau-1352330.inp" -scrdir="/scratch1/svicchi/G09-79393.pbs02/"
 Entering Link 1 = /software/commercial/gaussian/g16/AVX2/g16/l1.exe PID=   1352331.
  
 Copyright (c) 1988-2021, Gaussian, Inc.  All Rights Reserved.
  
 This is part of the Gaussian(R) 16 program.  It is based on
 the Gaussian(R) 09 system (copyright 2009, Gaussian, Inc.),
 the Gaussian(R) 03 system (copyright 2003, Gaussian, Inc.),
 the Gaussian(R) 98 system (copyright 1998, Gaussian, Inc.),
 the Gaussian(R) 94 system (copyright 1995, Gaussian, Inc.),
 the Gaussian 92(TM) system (copyright 1992, Gaussian, Inc.),
 the Gaussian 90(TM) system (copyright 1990, Gaussian, Inc.),
 the Gaussian 88(TM) system (copyright 1988, Gaussian, Inc.),
 the Gaussian 86(TM) system (copyright 1986, Carnegie Mellon
 University), and the Gaussian 82(TM) system (copyright 1983,
 Carnegie Mellon University). Gaussian is a federally registered
 trademark of Gaussian, Inc.
  
 This software contains proprietary and confidential information,
 including trade secrets, belonging to Gaussian, Inc.
  
 This software is provided under written license and may be
 used, copied, transmitted, or stored only in accord with that
 written license.
  
 The following legend is applicable only to US Government
 contracts under FAR:
  
                    RESTRICTED RIGHTS LEGEND
  
 Use, reproduction and disclosure by the US Government is
 subject to restrictions as set forth in subparagraphs (a)
 and (c) of the Commercial Computer Software - Restricted
 Rights clause in FAR 52.227-19.
  
 Gaussian, Inc.
 340 Quinnipiac St., Bldg. 40, Wallingford CT 06492
  
  
 ---------------------------------------------------------------
 Warning -- This program may not be used in any manner that
 competes with the business of Gaussian, Inc. or will provide
 assistance to any competitor of Gaussian, Inc.  The licensee
 of this program is prohibited from giving any competitor of
 Gaussian, Inc. access to this program.  By using this program,
 the user acknowledges that Gaussian, Inc. is engaged in the
 business of creating and licensing software in the field of
 computational chemistry and represents and warrants to the
 licensee that it is not a competitor of Gaussian, Inc. and that
 it will not use this program in any manner prohibited above.
 ---------------------------------------------------------------
  

 Cite this work as:
 Gaussian 16, Revision C.02,
 M. J. Frisch, G. W. Trucks, H. B. Schlegel, G. E. Scuseria, 
 M. A. Robb, J. R. Cheeseman, G. Scalmani, V. Barone, 
 G. A. Petersson, H. Nakatsuji, X. Li, M. Caricato, A. V. Marenich, 
 J. Bloino, B. G. Janesko, R. Gomperts, B. Mennucci, H. P. Hratchian, 
 J. V. Ortiz, A. F. Izmaylov, J. L. Sonnenberg, D. Williams-Young, 
 F. Ding, F. Lipparini, F. Egidi, J. Goings, B. Peng, A. Petrone, 
 T. Henderson, D. Ranasinghe, V. G. Zakrzewski, J. Gao, N. Rega, 
 G. Zheng, W. Liang, M. Hada, M. Ehara, K. Toyota, R. Fukuda, 
 J. Hasegawa, M. Ishida, T. Nakajima, Y. Honda, O. Kitao, H. Nakai, 
 T. Vreven, K. Throssell, J. A. Montgomery, Jr., J. E. Peralta, 
 F. Ogliaro, M. J. Bearpark, J. J. Heyd, E. N. Brothers, K. N. Kudin, 
 V. N. Staroverov, T. A. Keith, R. Kobayashi, J. Normand, 
 K. Raghavachari, A. P. Rendell, J. C. Burant, S. S. Iyengar, 
 J. Tomasi, M. Cossi, J. M. Millam, M. Klene, C. Adamo, R. Cammi, 
 J. W. Ochterski, R. L. Martin, K. Morokuma, O. Farkas, 
 J. B. Foresman, and D. J. Fox, Gaussian, Inc., Wallingford CT, 2019.
 
 ******************************************
 Gaussian 16:  ES64L-G16RevC.02  7-Dec-2021
                28-Jan-2023 
 ******************************************
 %NProcShared=2
 Will use up to    2 processors via shared memory.
 %mem=110gb
 %chk=/scratch1/svicchi/G09-79393.pbs02/00-opt/FeFeFe-AO-1xH2O-opt.chk
 ----------------------------------------------------------------------
 #p opt=(cartesian,maxcycle=500) gen um06l int=grid=ultrafine scf=(xqc,
 intrep,maxconventionalcycle=150) pop=(hirshfeld) nosymm
 ----------------------------------------------------------------------
 1/6=500,10=7,18=10,26=4,38=1/1,3;
 2/12=2,15=1,17=6,18=5,29=2,40=1/2;
 3/5=7,11=2,25=1,30=1,71=1,74=-53,75=-5,116=2/1,2,3;
 4//1;
 5/5=2,8=3,13=1,17=20,38=5,85=150/2,8;
 6/7=2,8=2,9=2,10=2,28=1,79=1/1;
 7/7=1,29=1,30=1/1,2,3,16;
 1/6=500,10=7,18=10,26=4/3(2);
 2/15=1,29=1/2;
 99/12=1/99;
 2/15=1,29=1/2;
 3/5=7,6=1,11=2,25=1,30=1,71=1,74=-53,75=-5,82=7,116=2/1,2,3;
 4/5=5,16=3,69=1/1;
 5/5=2,8=3,13=1,17=20,38=5,85=150/2,8;
 7/7=1,30=1/1,2,3,16;
 1/6=500,18=10,26=4/3(-5);
 2/15=1,29=1/2;
 6/7=2,8=2,9=2,10=2,19=2,28=1,79=1/1;
 99/9=1,12=1/99;
 Leave Link    1 at Sat Jan 28 10:51:51 2023, MaxMem= 14763950080 cpu:               0.0 elap:               0.1
 (Enter /software/commercial/gaussian/g16/AVX2/g16/l101.exe)
 ---------------
 FeFeFe-AO-1xH2O
 ---------------
 Symbolic Z-matrix:
 Charge =  0 Multiplicity =15
 O                     0.87434   2.5275    1.63099 
 O                    -1.2965    1.93271   1.50965 
 C                    -0.32977   2.58191   1.97313 
 H                    -0.56929   3.28873   2.7861 
 O                     2.35626  -1.64058  -1.40847 
 O                     3.02938   0.50386  -1.25189 
 C                     3.06456  -0.65744  -1.7236 
 H                     3.80954  -0.83885  -2.51848 
 O                    -2.00317  -0.87906   1.43631 
 O                     2.94673   0.44022   1.60777 
 O                     2.36827  -1.73055   1.42216 
 C                     3.02207  -0.77426   1.90318 
 H                     3.75244  -1.03822   2.68706 
 O                    -1.23667   1.97362  -1.35506 
 O                     0.91738   2.62716  -1.23737 
 C                    -0.25035   2.6641   -1.69534 
 H                    -0.43255   3.39711  -2.5013 
 Fe                   -1.38497   0.5234    0.0594 
 O                    -1.98485  -0.816    -1.38637 
 Fe                    0.91525  -1.72509   0.01683 
 O                    -0.36395  -2.38144  -1.41423 
 O                    -0.37986  -2.44312   1.40723 
 Fe                    1.8295    1.42683   0.22634 
 O                     0.45993   0.08458   0.07901 
 C                    -1.44297  -1.8703   -1.79383 
 H                    -1.98017  -2.41551  -2.589 
 C                    -1.46328  -1.95061   1.79941 
 H                    -2.00748  -2.53259   2.56323 
 N                    -4.44624   0.01412   0.01434 
 N                    -5.13007  -0.87523  -0.01227 
 O                    -3.73883   0.96286   0.0425 
 O                     3.36539   2.92525  -0.13033 
 H                     3.92599   2.41175  -0.73144 
 H                     2.86857   3.5199   -0.71134 
 
 ITRead=  0  0  0  0  0  0  0  0  0  0  0  0  0  0  0  0  0  0  0  0
 ITRead=  0  0  0  0  0  0  0  0  0  0  0  0  0  0
 MicOpt= -1 -1 -1 -1 -1 -1 -1 -1 -1 -1 -1 -1 -1 -1 -1 -1 -1 -1 -1 -1
 MicOpt= -1 -1 -1 -1 -1 -1 -1 -1 -1 -1 -1 -1 -1 -1
 NAtoms=     34 NQM=       34 NQMF=       0 NMMI=      0 NMMIF=      0
                NMic=       0 NMicF=      0.
                    Isotopes and Nuclear Properties:
 (Nuclear quadrupole moments (NQMom) in fm**2, nuclear magnetic moments (NMagM)
  in nuclear magnetons)

  Atom         1           2           3           4           5           6           7           8           9          10
 IAtWgt=          16          16          12           1          16          16          12           1          16          16
 AtmWgt=  15.9949146  15.9949146  12.0000000   1.0078250  15.9949146  15.9949146  12.0000000   1.0078250  15.9949146  15.9949146
 NucSpn=           0           0           0           1           0           0           0           1           0           0
 AtZEff=  -0.0000000  -0.0000000  -0.0000000  -0.0000000  -0.0000000  -0.0000000  -0.0000000  -0.0000000  -0.0000000  -0.0000000
 NQMom=    0.0000000   0.0000000   0.0000000   0.0000000   0.0000000   0.0000000   0.0000000   0.0000000   0.0000000   0.0000000
 NMagM=    0.0000000   0.0000000   0.0000000   2.7928460   0.0000000   0.0000000   0.0000000   2.7928460   0.0000000   0.0000000
 AtZNuc=   8.0000000   8.0000000   6.0000000   1.0000000   8.0000000   8.0000000   6.0000000   1.0000000   8.0000000   8.0000000

  Atom        11          12          13          14          15          16          17          18          19          20
 IAtWgt=          16          12           1          16          16          12           1          56          16          56
 AtmWgt=  15.9949146  12.0000000   1.0078250  15.9949146  15.9949146  12.0000000   1.0078250  55.9349393  15.9949146  55.9349393
 NucSpn=           0           0           1           0           0           0           1           0           0           0
 AtZEff=  -0.0000000  -0.0000000  -0.0000000  -0.0000000  -0.0000000  -0.0000000  -0.0000000  -0.0000000  -0.0000000  -0.0000000
 NQMom=    0.0000000   0.0000000   0.0000000   0.0000000   0.0000000   0.0000000   0.0000000   0.0000000   0.0000000   0.0000000
 NMagM=    0.0000000   0.0000000   2.7928460   0.0000000   0.0000000   0.0000000   2.7928460   0.0000000   0.0000000   0.0000000
 AtZNuc=   8.0000000   6.0000000   1.0000000   8.0000000   8.0000000   6.0000000   1.0000000  26.0000000   8.0000000  26.0000000

  Atom        21          22          23          24          25          26          27          28          29          30
 IAtWgt=          16          16          56          16          12           1          12           1          14          14
 AtmWgt=  15.9949146  15.9949146  55.9349393  15.9949146  12.0000000   1.0078250  12.0000000   1.0078250  14.0030740  14.0030740
 NucSpn=           0           0           0           0           0           1           0           1           2           2
 AtZEff=  -0.0000000  -0.0000000  -0.0000000  -0.0000000  -0.0000000  -0.0000000  -0.0000000  -0.0000000  -0.0000000  -0.0000000
 NQMom=    0.0000000   0.0000000   0.0000000   0.0000000   0.0000000   0.0000000   0.0000000   0.0000000   2.0440000   2.0440000
 NMagM=    0.0000000   0.0000000   0.0000000   0.0000000   0.0000000   2.7928460   0.0000000   2.7928460   0.4037610   0.4037610
 AtZNuc=   8.0000000   8.0000000  26.0000000   8.0000000   6.0000000   1.0000000   6.0000000   1.0000000   7.0000000   7.0000000

  Atom        31          32          33          34
 IAtWgt=          16          16           1           1
 AtmWgt=  15.9949146  15.9949146   1.0078250   1.0078250
 NucSpn=           0           0           1           1
 AtZEff=  -0.0000000  -0.0000000  -0.0000000  -0.0000000
 NQMom=    0.0000000   0.0000000   0.0000000   0.0000000
 NMagM=    0.0000000   0.0000000   2.7928460   2.7928460
 AtZNuc=   8.0000000   8.0000000   1.0000000   1.0000000
 Leave Link  101 at Sat Jan 28 10:51:52 2023, MaxMem= 14763950080 cpu:               0.1 elap:               0.1
 (Enter /software/commercial/gaussian/g16/AVX2/g16/l103.exe)

 GradGradGradGradGradGradGradGradGradGradGradGradGradGradGradGradGradGrad
 Berny optimization.
 Initialization pass.
 No Z-matrix variables, so optimization will use Cartesian coordinates.
 Trust Radius=3.00D-01 FncErr=1.00D-07 GrdErr=1.00D-06 EigMax=2.50D+02 EigMin=1.00D-04
 Number of steps in this run=    204 maximum allowed number of steps=    204.
 GradGradGradGradGradGradGradGradGradGradGradGradGradGradGradGradGradGrad

 Leave Link  103 at Sat Jan 28 10:51:52 2023, MaxMem= 14763950080 cpu:               0.1 elap:               0.1
 (Enter /software/commercial/gaussian/g16/AVX2/g16/l202.exe)
 ---------------------------------------------------------------------------------------------------
                            Z-MATRIX (ANGSTROMS AND DEGREES)
   CD    Cent   Atom    N1       Length/X        N2       Alpha/Y        N3        Beta/Z          J
 ---------------------------------------------------------------------------------------------------
      1      1  O        0   0.874342          2.527504          1.630986
      2      2  O        0  -1.296502          1.932711          1.509653
      3      3  C        0  -0.329772          2.581913          1.973130
      4      4  H        0  -0.569290          3.288728          2.786102
      5      5  O        0   2.356264         -1.640579         -1.408474
      6      6  O        0   3.029377          0.503861         -1.251886
      7      7  C        0   3.064556         -0.657441         -1.723604
      8      8  H        0   3.809535         -0.838847         -2.518484
      9      9  O        0  -2.003168         -0.879058          1.436310
     10     10  O        0   2.946733          0.440218          1.607768
     11     11  O        0   2.368274         -1.730546          1.422155
     12     12  C        0   3.022069         -0.774257          1.903177
     13     13  H        0   3.752439         -1.038222          2.687063
     14     14  O        0  -1.236670          1.973621         -1.355063
     15     15  O        0   0.917384          2.627162         -1.237370
     16     16  C        0  -0.250349          2.664103         -1.695339
     17     17  H        0  -0.432545          3.397112         -2.501302
     18     18  Fe       0  -1.384970          0.523397          0.059399
     19     19  O        0  -1.984845         -0.815999         -1.386373
     20     20  Fe       0   0.915253         -1.725090          0.016829
     21     21  O        0  -0.363951         -2.381437         -1.414229
     22     22  O        0  -0.379859         -2.443121          1.407231
     23     23  Fe       0   1.829504          1.426834          0.226342
     24     24  O        0   0.459928          0.084576          0.079013
     25     25  C        0  -1.442967         -1.870295         -1.793826
     26     26  H        0  -1.980166         -2.415512         -2.588998
     27     27  C        0  -1.463276         -1.950611          1.799406
     28     28  H        0  -2.007479         -2.532588          2.563227
     29     29  N        0  -4.446236          0.014117          0.014343
     30     30  N        0  -5.130070         -0.875225         -0.012265
     31     31  O        0  -3.738826          0.962861          0.042500
     32     32  O        0   3.365385          2.925249         -0.130330
     33     33  H        0   3.925986          2.411746         -0.731443
     34     34  H        0   2.868566          3.519903         -0.711339
 ---------------------------------------------------------------------------------------------------
                         Z-Matrix orientation:                         
 ---------------------------------------------------------------------
 Center     Atomic      Atomic             Coordinates (Angstroms)
 Number     Number       Type             X           Y           Z
 ---------------------------------------------------------------------
      1          8           0        0.874342    2.527504    1.630986
      2          8           0       -1.296502    1.932711    1.509653
      3          6           0       -0.329772    2.581913    1.973130
      4          1           0       -0.569290    3.288728    2.786102
      5          8           0        2.356264   -1.640579   -1.408474
      6          8           0        3.029377    0.503861   -1.251886
      7          6           0        3.064556   -0.657441   -1.723604
      8          1           0        3.809535   -0.838847   -2.518484
      9          8           0       -2.003168   -0.879058    1.436310
     10          8           0        2.946733    0.440218    1.607768
     11          8           0        2.368274   -1.730546    1.422155
     12          6           0        3.022069   -0.774257    1.903177
     13          1           0        3.752439   -1.038222    2.687063
     14          8           0       -1.236670    1.973621   -1.355063
     15          8           0        0.917384    2.627162   -1.237370
     16          6           0       -0.250349    2.664103   -1.695339
     17          1           0       -0.432545    3.397112   -2.501302
     18         26           0       -1.384970    0.523397    0.059399
     19          8           0       -1.984845   -0.815999   -1.386373
     20         26           0        0.915253   -1.725090    0.016829
     21          8           0       -0.363951   -2.381437   -1.414229
     22          8           0       -0.379859   -2.443121    1.407231
     23         26           0        1.829504    1.426834    0.226342
     24          8           0        0.459928    0.084576    0.079013
     25          6           0       -1.442967   -1.870295   -1.793826
     26          1           0       -1.980166   -2.415512   -2.588998
     27          6           0       -1.463276   -1.950611    1.799406
     28          1           0       -2.007479   -2.532588    2.563227
     29          7           0       -4.446236    0.014117    0.014343
     30          7           0       -5.130070   -0.875225   -0.012265
     31          8           0       -3.738826    0.962861    0.042500
     32          8           0        3.365385    2.925249   -0.130330
     33          1           0        3.925986    2.411746   -0.731443
     34          1           0        2.868566    3.519903   -0.711339
 ---------------------------------------------------------------------
                    Distance matrix (angstroms):
                    1          2          3          4          5
     1  O    0.000000
     2  O    2.254122   0.000000
     3  C    1.252962   1.253332   0.000000
     4  H    1.999457   1.999235   1.103576   0.000000
     5  O    5.367246   5.884434   6.039824   7.102915   0.000000
     6  O    4.129196   5.327376   5.099305   6.083686   2.253048
     7  C    5.118026   6.015120   5.973334   7.008176   1.252016
     8  H    6.096374   7.069585   7.000718   8.021821   1.996721
     9  O    4.463477   2.900138   3.881591   4.609597   5.260927
    10  O    2.941446   4.499134   3.931391   4.675992   3.711615
    11  O    4.517348   5.182441   5.116672   5.973504   2.832084
    12  C    3.948220   5.112005   4.743797   5.494112   3.487240
    13  H    4.702461   5.975328   5.502683   6.116343   4.368703
    14  O    3.698601   2.865633   3.502763   4.395924   5.096515
    15  O    2.870409   3.595788   3.444525   4.340069   4.507024
    16  C    3.513976   3.449832   3.670249   4.535989   5.040537
    17  H    4.420404   4.356449   4.549248   5.290282   5.860892
    18  Fe   3.404530   2.024161   3.002215   3.968287   4.564458
    19  O    5.334643   4.051690   5.056811   6.021804   4.418784
    20  Fe   4.548817   4.527681   4.891572   5.917019   2.028582
    21  O    5.907995   5.294394   6.009177   7.059442   2.819304
    22  O    5.131296   4.471983   5.057046   5.898412   4.007323
    23  Fe   2.024064   3.416828   3.007981   3.971553   3.515554
    24  O    2.923740   2.923590   3.232336   4.319052   2.963928
    25  C    6.036547   5.039571   5.937282   6.953745   3.825627
    26  H    7.098584   6.014431   6.964989   7.963707   4.560568
    27  C    5.054338   3.897687   4.675338   5.405872   4.997549
    28  H    5.897330   4.642672   5.414890   6.000482   5.967608
    29  N    6.102393   3.979671   5.232179   5.782425   7.143979
    30  N    7.094491   4.989688   6.239908   6.780124   7.653781
    31  O    5.123740   3.009667   4.239140   4.794055   6.784788
    32  O    3.076643   5.040622   4.265748   4.911147   4.847552
    33  H    3.860959   5.703189   5.045310   5.774922   4.398151
    34  H    3.232379   4.979937   4.279669   4.909622   5.232497
                    6          7          8          9         10
     6  O    0.000000
     7  C    1.253945   0.000000
     8  H    2.003942   1.104417   0.000000
     9  O    5.870722   5.976286   7.030614   0.000000
    10  O    2.861556   3.509527   4.405268   5.125564   0.000000
    11  O    3.546847   3.395904   4.289638   4.453621   2.254170
    12  C    3.404124   3.628911   4.491699   5.047965   1.252155
    13  H    4.291405   4.480196   5.209677   5.892090   1.999956
    14  O    4.513313   5.055577   5.893022   4.064119   5.350753
    15  O    2.994851   3.954161   4.692442   5.288834   4.122595
    16  C    3.952202   4.692766   5.425024   5.043173   5.106615
    17  H    4.681543   5.410539   5.994905   6.021401   6.086641
    18  Fe   4.605031   4.936776   5.956851   2.060323   4.600871
    19  O    5.186766   5.063133   5.903985   2.823447   5.904526
    20  Fe   3.323760   2.964538   3.948431   3.353786   3.368465
    21  O    4.457126   3.850005   4.584425   3.615211   5.296681
    22  O    5.232446   4.985456   5.961204   2.254389   4.406821
    23  Fe   2.115829   3.109959   4.072825   4.633631   2.032228
    24  O    2.923895   3.253322   4.338153   2.972825   2.940709
    25  C    5.092365   4.668373   5.401647   3.424931   6.014880
    26  H    5.950305   5.411926   6.000957   4.308634   7.074063
    27  C    5.959761   5.880914   6.905268   1.253614   5.020057
    28  H    7.010351   6.900626   7.907604   2.001030   5.856167
    29  N    7.597893   7.738440   8.677587   2.964512   7.574731
    30  N    8.367503   8.374247   9.284341   3.446143   8.342041
    31  O    6.906134   7.213218   8.172059   2.889270   6.886212
    32  O    2.689593   3.932517   4.479840   6.763762   3.061312
    33  H    2.171358   3.338616   3.711257   7.119228   3.212128
    34  H    3.068316   4.302708   4.811434   6.906305   3.856012
                   11         12         13         14         15
    11  O    0.000000
    12  C    1.254320   0.000000
    13  H    1.998804   1.103447   0.000000
    14  O    5.867658   6.025265   7.092333   0.000000
    15  O    5.307332   5.085507   6.072376   2.254089   0.000000
    16  C    5.990734   5.956539   6.995353   1.251152   1.254871
    17  H    7.037825   6.980982   8.006585   1.996699   2.003161
    18  Fe   4.585216   4.950295   5.977980   2.031218   3.377613
    19  O    5.260596   5.990999   7.039793   2.888378   4.505607
    20  Fe   2.021445   2.983465   3.956205   4.493698   4.529362
    21  O    3.991715   5.005331   5.964016   4.442034   5.172926
    22  O    2.839053   3.821542   4.548362   5.279394   5.863832
    23  Fe   3.418960   3.013103   3.978609   3.493027   2.101238
    24  O    2.956431   3.260327   4.347784   2.916078   2.899461
    25  C    4.988749   5.899634   6.911075   3.874372   5.109601
    26  H    5.955456   6.920673   7.911795   4.619510   5.970867
    27  C    3.856361   4.638200   5.368805   5.040002   5.987116
    28  H    4.592661   5.368775   5.951901   6.021052   7.044316
    29  N    7.173795   7.743695   8.687297   4.002030   6.096163
    30  N    7.682076   8.374753   9.285037   5.007753   7.095019
    31  O    6.815758   7.224223   8.192503   3.039013   5.107666
    32  O    5.008080   4.235488   4.878178   4.856385   2.703165
    33  H    4.921690   4.231891   4.859895   5.218608   3.058440
    34  H    5.689403   5.029818   5.753857   4.433772   2.209255
                   16         17         18         19         20
    16  C    0.000000
    17  H    1.104570   0.000000
    18  Fe   2.991503   3.965166   0.000000
    19  O    3.900647   4.626338   2.060119   0.000000
    20  Fe   4.853366   5.864682   3.216913   3.347535   0.000000
    21  O    5.054642   5.880311   3.413520   2.253590   2.028566
    22  O    5.977161   7.027640   3.409858   3.609395   2.031281
    23  Fe   3.090223   4.054492   3.343189   4.709608   3.288522
    24  O    3.210417   4.292718   1.896470   2.989198   1.867104
    25  C    4.689648   5.409903   3.027799   1.253471   2.976702
    26  H    5.439980   6.015764   4.000681   2.001192   3.956067
    27  C    5.914391   6.939498   3.025636   3.421778   2.980913
    28  H    6.944673   7.955577   3.999465   4.306568   3.959616
    29  N    5.248896   5.820897   3.103666   2.951194   5.636525
    30  N    6.258695   6.820184   3.998381   3.432801   6.104838
    31  O    4.252503   4.829907   2.394588   2.877928   5.374588
    32  O    3.948542   4.502048   5.326421   6.648274   5.258370
    33  H    4.293548   4.806260   5.691884   6.766476   5.170864
    34  H    3.380574   3.757177   5.259815   6.543036   5.644078
                   21         22         23         24         25
    21  O    0.000000
    22  O    2.822179   0.000000
    23  Fe   4.691018   4.610026   0.000000
    24  O    2.998294   2.976350   1.923305   0.000000
    25  C    1.252851   3.421271   5.065689   3.309087   0.000000
    26  H    1.998348   4.304833   6.099455   4.395769   1.103695
    27  C    3.423679   1.253060   4.972330   3.286404   3.594187
    28  H    4.306296   1.998369   5.988363   4.371380   4.443109
    29  N    4.944143   4.951119   6.436274   4.907096   3.979963
    30  N    5.191345   5.199786   7.334308   5.672533   4.214125
    31  O    4.969524   4.974521   5.590650   4.289785   4.082871
    32  O    6.611903   6.723864   2.175177   4.068775   6.991760
    33  H    6.468722   6.832566   2.506520   4.252778   6.949114
    34  H    6.765282   7.113245   2.517903   4.269387   6.986797
                   26         27         28         29         30
    26  H    0.000000
    27  C    4.443129   0.000000
    28  H    5.153627   1.103756   0.000000
    29  N    4.331510   3.993076   4.350868   0.000000
    30  N    4.351314   4.228946   4.373853   1.122170   0.000000
    31  O    4.629370   4.093063   4.644329   1.183781   2.305888
    32  O    7.946301   7.128384   8.118553   8.337688   9.307540
    33  H    7.850832   7.381023   8.396862   8.740648   9.660929
    34  H    7.890815   7.415876   8.433934   8.143923   9.153362
                   31         32         33         34
    31  O    0.000000
    32  O    7.372289   0.000000
    33  H    7.838852   0.969173   0.000000
    34  H    7.124912   0.968511   1.531846   0.000000
 Symmetry turned off by external request.
 Stoichiometry    C6H8Fe3N2O15(15)
 Framework group  C1[X(C6H8Fe3N2O15)]
 Deg. of freedom    96
 Full point group                 C1      NOp   1
 Rotational constants (GHZ):           0.2465723           0.1631006           0.1327871
 Leave Link  202 at Sat Jan 28 10:51:52 2023, MaxMem= 14763950080 cpu:               0.0 elap:               0.1
 (Enter /software/commercial/gaussian/g16/AVX2/g16/l301.exe)
 General basis read from cards:  (5D, 7F)
 Centers:       4      8     13     17     26     28     33     34
 S 3 1.00
     Exponent=  3.4061341000D+01 Coefficients=  6.0251978000D-03
     Exponent=  5.1235746000D+00 Coefficients=  4.5021094000D-02
     Exponent=  1.1646626000D+00 Coefficients=  2.0189726000D-01
 S 1 1.00
     Exponent=  3.2723041000D-01 Coefficients=  1.0000000000D+00
 S 1 1.00
     Exponent=  1.0307241000D-01 Coefficients=  1.0000000000D+00
 P 1 1.00
     Exponent=  8.0000000000D-01 Coefficients=  1.0000000000D+00
 ****
 Centers:       1      2      5      6      9     10     11     14     15     19
 Centers:      21     22     24     31     32
 S 6 1.00
     Exponent=  2.7032382631D+04 Coefficients=  2.1726302465D-04
     Exponent=  4.0523871392D+03 Coefficients=  1.6838662199D-03
     Exponent=  9.2232722710D+02 Coefficients=  8.7395616265D-03
     Exponent=  2.6124070989D+02 Coefficients=  3.5239968808D-02
     Exponent=  8.5354641351D+01 Coefficients=  1.1153519115D-01
     Exponent=  3.1035035245D+01 Coefficients=  2.5588953961D-01
 S 2 1.00
     Exponent=  1.2260860728D+01 Coefficients=  3.9768730901D-01
     Exponent=  4.9987076005D+00 Coefficients=  2.4627849430D-01
 S 1 1.00
     Exponent=  1.1703108158D+00 Coefficients=  1.0000000000D+00
 S 1 1.00
     Exponent=  4.6474740994D-01 Coefficients=  1.0000000000D+00
 S 1 1.00
     Exponent=  1.8504536357D-01 Coefficients=  1.0000000000D+00
 P 4 1.00
     Exponent=  6.3274954801D+01 Coefficients=  6.0685103418D-03
     Exponent=  1.4627049379D+01 Coefficients=  4.1912575824D-02
     Exponent=  4.4501223456D+00 Coefficients=  1.6153841088D-01
     Exponent=  1.5275799647D+00 Coefficients=  3.5706951311D-01
 P 1 1.00
     Exponent=  5.2935117943D-01 Coefficients=  4.4794207502D-01
 P 1 1.00
     Exponent=  1.7478421270D-01 Coefficients=  2.4446069663D-01
 D 1 1.00
     Exponent=  2.3140000000D+00 Coefficients=  1.0000000000D+00
 D 1 1.00
     Exponent=  6.4500000000D-01 Coefficients=  1.0000000000D+00
 F 1 1.00
     Exponent=  1.4280000000D+00 Coefficients=  1.0000000000D+00
 ****
 Centers:       3      7     12     16     25     27
 S 6 1.00
     Exponent=  1.3575349682D+04 Coefficients=  2.2245814352D-04
     Exponent=  2.0352333680D+03 Coefficients=  1.7232738252D-03
     Exponent=  4.6322562359D+02 Coefficients=  8.9255715314D-03
     Exponent=  1.3120019598D+02 Coefficients=  3.5727984502D-02
     Exponent=  4.2853015891D+01 Coefficients=  1.1076259931D-01
     Exponent=  1.5584185766D+01 Coefficients=  2.4295627626D-01
 S 2 1.00
     Exponent=  6.2067138508D+00 Coefficients=  4.1440263448D-01
     Exponent=  2.5764896527D+00 Coefficients=  2.3744968655D-01
 S 1 1.00
     Exponent=  5.7696339419D-01 Coefficients=  1.0000000000D+00
 S 1 1.00
     Exponent=  2.2972831358D-01 Coefficients=  1.0000000000D+00
 S 1 1.00
     Exponent=  9.5164440028D-02 Coefficients=  1.0000000000D+00
 P 4 1.00
     Exponent=  3.4697232244D+01 Coefficients=  5.3333657805D-03
     Exponent=  7.9582622826D+00 Coefficients=  3.5864109092D-02
     Exponent=  2.3780826883D+00 Coefficients=  1.4215873329D-01
     Exponent=  8.1433208183D-01 Coefficients=  3.4270471845D-01
 P 1 1.00
     Exponent=  2.8887547253D-01 Coefficients=  4.6445822433D-01
 P 1 1.00
     Exponent=  1.0056823671D-01 Coefficients=  2.4955789874D-01
 D 1 1.00
     Exponent=  1.0970000000D+00 Coefficients=  1.0000000000D+00
 D 1 1.00
     Exponent=  3.1800000000D-01 Coefficients=  1.0000000000D+00
 F 1 1.00
     Exponent=  7.6100000000D-01 Coefficients=  1.0000000000D+00
 ****
 Centers:      18     20     23
 S 8 1.00
     Exponent=  3.0078484637D+05 Coefficients=  2.2806273096D-04
     Exponent=  4.5088970557D+04 Coefficients=  1.7681788761D-03
     Exponent=  1.0262516317D+04 Coefficients=  9.1927083490D-03
     Exponent=  2.9052897293D+03 Coefficients=  3.7355495807D-02
     Exponent=  9.4611487137D+02 Coefficients=  1.2151108426D-01
     Exponent=  3.3987832894D+02 Coefficients=  2.8818881468D-01
     Exponent=  1.3194425588D+02 Coefficients=  4.1126612677D-01
     Exponent=  5.2111494077D+01 Coefficients=  2.1518583573D-01
 S 4 1.00
     Exponent=  3.2948839267D+02 Coefficients= -2.4745216477D-02
     Exponent=  1.0192332739D+02 Coefficients= -1.1683089050D-01
     Exponent=  1.6240462745D+01 Coefficients=  5.5293621136D-01
     Exponent=  6.8840675801D+00 Coefficients=  5.3601640182D-01
 S 2 1.00
     Exponent=  1.0470693782D+01 Coefficients= -2.2912708577D-01
     Exponent=  1.7360039648D+00 Coefficients=  7.1159319984D-01
 S 1 1.00
     Exponent=  7.2577288979D-01 Coefficients=  1.0000000000D+00
 S 1 1.00
     Exponent=  1.1595528203D-01 Coefficients=  1.0000000000D+00
 S 1 1.00
     Exponent=  4.1968227746D-02 Coefficients=  1.0000000000D+00
 P 6 1.00
     Exponent=  1.5853959970D+03 Coefficients=  2.3793960179D-03
     Exponent=  3.7538006499D+02 Coefficients=  1.9253154755D-02
     Exponent=  1.2031816501D+02 Coefficients=  9.0021836536D-02
     Exponent=  4.4788749031D+01 Coefficients=  2.5798172356D-01
     Exponent=  1.7829278584D+01 Coefficients=  4.1492649744D-01
     Exponent=  7.2247153786D+00 Coefficients=  2.4207474784D-01
 P 3 1.00
     Exponent=  2.8143219756D+01 Coefficients= -2.9041755152D-02
     Exponent=  3.8743241412D+00 Coefficients=  5.5312260343D-01
     Exponent=  1.5410752281D+00 Coefficients=  9.6771136842D-01
 P 1 1.00
     Exponent=  5.8285615250D-01 Coefficients=  1.0000000000D+00
 P 1 1.00
     Exponent=  1.3491500000D-01 Coefficients=  1.0000000000D+00
 D 4 1.00
     Exponent=  6.1996675034D+01 Coefficients=  1.1971972255D-02
     Exponent=  1.7873732552D+01 Coefficients=  7.3210135410D-02
     Exponent=  6.2744782934D+00 Coefficients=  2.3103094314D-01
     Exponent=  2.3552337175D+00 Coefficients=  3.9910706494D-01
 D 1 1.00
     Exponent=  8.5432239901D-01 Coefficients=  4.1391589765D-01
 D 1 1.00
     Exponent=  2.7869254413D-01 Coefficients=  2.1909269782D-01
 D 1 1.00
     Exponent=  9.1000000000D-02 Coefficients=  1.0000000000D+00
 F 1 1.00
     Exponent=  1.5980000000D+00 Coefficients=  1.0000000000D+00
 ****
 Centers:      29     30
 S 6 1.00
     Exponent=  1.9730800647D+04 Coefficients=  2.1887984991D-04
     Exponent=  2.9578958745D+03 Coefficients=  1.6960708803D-03
     Exponent=  6.7322133595D+02 Coefficients=  8.7954603538D-03
     Exponent=  1.9068249494D+02 Coefficients=  3.5359382605D-02
     Exponent=  6.2295441898D+01 Coefficients=  1.1095789217D-01
     Exponent=  2.2654161182D+01 Coefficients=  2.4982972552D-01
 S 2 1.00
     Exponent=  8.9791477428D+00 Coefficients=  4.0623896148D-01
     Exponent=  3.6863002370D+00 Coefficients=  2.4338217176D-01
 S 1 1.00
     Exponent=  8.4660076805D-01 Coefficients=  1.0000000000D+00
 S 1 1.00
     Exponent=  3.3647133771D-01 Coefficients=  1.0000000000D+00
 S 1 1.00
     Exponent=  1.3647653675D-01 Coefficients=  1.0000000000D+00
 P 4 1.00
     Exponent=  4.9200380510D+01 Coefficients=  5.5552416751D-03
     Exponent=  1.1346790537D+01 Coefficients=  3.8052379723D-02
     Exponent=  3.4273972411D+00 Coefficients=  1.4953671029D-01
     Exponent=  1.1785525134D+00 Coefficients=  3.4949305230D-01
 P 1 1.00
     Exponent=  4.1642204972D-01 Coefficients=  4.5843153697D-01
 P 1 1.00
     Exponent=  1.4260826011D-01 Coefficients=  2.4428771672D-01
 D 1 1.00
     Exponent=  1.6540000000D+00 Coefficients=  1.0000000000D+00
 D 1 1.00
     Exponent=  4.6900000000D-01 Coefficients=  1.0000000000D+00
 F 1 1.00
     Exponent=  1.0930000000D+00 Coefficients=  1.0000000000D+00
 ****
 Ernie: Thresh=  0.10000D-02 Tol=  0.10000D-05 Strict=F.
   896 basis functions,  1543 primitive gaussians,  1032 cartesian basis functions
   135 alpha electrons      121 beta electrons
       nuclear repulsion energy      4738.4496778517 Hartrees.
 IExCor= 4134 DFT=T Ex+Corr=M06L ExCW=0 ScaHFX=  0.000000
 ScaDFX=  1.000000  1.000000  1.000000  1.000000 ScalE2=  1.000000  1.000000
 IRadAn=      5 IRanWt=     -1 IRanGd=            0 ICorTp=0 IEmpDi=  4
 NAtoms=   34 NActive=   34 NUniq=   34 SFac= 1.00D+00 NAtFMM=   60 NAOKFM=F Big=F
 Integral buffers will be    131072 words long.
 Raffenetti 2 integral format.
 Two-electron integral symmetry is turned off.
 Leave Link  301 at Sat Jan 28 10:51:52 2023, MaxMem= 14763950080 cpu:               0.1 elap:               0.1
 (Enter /software/commercial/gaussian/g16/AVX2/g16/l302.exe)
 NPDir=0 NMtPBC=     1 NCelOv=     1 NCel=       1 NClECP=     1 NCelD=      1
         NCelK=      1 NCelE2=     1 NClLst=     1 CellRange=     0.0.
 One-electron integrals computed using PRISM.
 NBasis=   896 RedAO= T EigKep=  1.11D-04  NBF=   896
 NBsUse=   896 1.00D-06 EigRej= -1.00D+00 NBFU=   896
 Precomputing XC quadrature grid using
 IXCGrd= 4 IRadAn=           5 IRanWt=          -1 IRanGd=           0 AccXCQ= 0.00D+00.
 Generated NRdTot=       0 NPtTot=           0 NUsed=           0 NTot=          32
 NSgBfM=  1013  1013  1013  1013  1013 MxSgAt=    34 MxSgA2=    34.
 Leave Link  302 at Sat Jan 28 10:51:54 2023, MaxMem= 14763950080 cpu:               2.7 elap:               1.8
 (Enter /software/commercial/gaussian/g16/AVX2/g16/l303.exe)
 DipDrv:  MaxL=1.
 Leave Link  303 at Sat Jan 28 10:51:55 2023, MaxMem= 14763950080 cpu:               0.2 elap:               0.2
 (Enter /software/commercial/gaussian/g16/AVX2/g16/l401.exe)
 ExpMin= 4.20D-02 ExpMax= 3.01D+05 ExpMxC= 2.91D+03 IAcc=3 IRadAn=         5 AccDes= 0.00D+00
 Harris functional with IExCor= 1009 and IRadAn=       5 diagonalized for initial guess.
 HarFok:  IExCor= 1009 AccDes= 0.00D+00 IRadAn=         5 IDoV= 1 UseB2=F ITyADJ=14
 ICtDFT=  3500011 ScaDFX=  1.000000  1.000000  1.000000  1.000000
 FoFCou: FMM=F IPFlag=           0 FMFlag=      100000 FMFlg1=           0
         NFxFlg=           0 DoJE=T BraDBF=F KetDBF=T FulRan=T
         wScrn=  0.000000 ICntrl=       500 IOpCl=  0 I1Cent=   200000004 NGrid=           0
         NMat0=    1 NMatS0=      1 NMatT0=    0 NMatD0=    1 NMtDS0=    0 NMtDT0=    0
 Symmetry not used in FoFCou.
 Harris En= -5260.93959456910    
 JPrj=0 DoOrth=F DoCkMO=F.
 Initial guess <Sx>= 0.0000 <Sy>= 0.0000 <Sz>= 7.0000 <S**2>=56.0000 S= 7.0000
 Leave Link  401 at Sat Jan 28 10:52:12 2023, MaxMem= 14763950080 cpu:              31.5 elap:              16.2
 (Enter /software/commercial/gaussian/g16/AVX2/g16/l502.exe)
 Two-electron integral symmetry not used.
 UHF open shell SCF:
 Using DIIS extrapolation, IDIIS=  1040.
 NGot= 14763950080 LenX= 14761806610 LenY= 14760740554
 Requested convergence on RMS density matrix=1.00D-08 within 150 cycles.
 Requested convergence on MAX density matrix=1.00D-06.
 Requested convergence on             energy=1.00D-06.
 No special actions if energy rises.
 Fock matrices will be formed incrementally for  20 cycles.

 Cycle   1  Pass 1  IDiag  1:
 FoFJK:  IHMeth= 1 ICntrl=     500 DoSepK=F KAlg= 0 I1Cent=           0 FoldK=F
 IRaf= 760000000 NMat=       1 IRICut=       1 DoRegI=T DoRafI=F ISym2E= 0 IDoP0=0 IntGTp=1.
 FoFCou: FMM=F IPFlag=           0 FMFlag=      100000 FMFlg1=           0
         NFxFlg=           0 DoJE=T BraDBF=F KetDBF=F FulRan=T
         wScrn=  0.000000 ICntrl=       500 IOpCl=  0 I1Cent=           0 NGrid=           0
         NMat0=    1 NMatS0=      1 NMatT0=    0 NMatD0=    1 NMtDS0=    0 NMtDT0=    0
 Symmetry not used in FoFCou.
 E= -5262.21661055794    
 DIIS: error= 3.60D-02 at cycle   1 NSaved=   1.
 NSaved= 1 IEnMin= 1 EnMin= -5262.21661055794     IErMin= 1 ErrMin= 3.60D-02
 ErrMax= 3.60D-02  0.00D+00 EMaxC= 1.00D-01 BMatC= 8.75D+00 BMatP= 8.75D+00
 IDIUse=3 WtCom= 6.40D-01 WtEn= 3.60D-01
 Coeff-Com:  0.100D+01
 Coeff-En:   0.100D+01
 Coeff:      0.100D+01
 Gap=     0.426 Goal=   None    Shift=    0.000
 Gap=     0.017 Goal=   None    Shift=    0.000
 GapD=    0.017 DampG=0.250 DampE=0.250 DampFc=0.1250 IDamp=-1.
 Damping current iteration by 1.25D-01
 RMSDP=3.13D-03 MaxDP=4.92D-01              OVMax= 8.38D-01

 Cycle   2  Pass 1  IDiag  1:
 RMSU=  3.91D-04    CP:  9.98D-01
 E= -5262.44416288736     Delta-E=       -0.227552329423 Rises=F Damp=T
 DIIS: error= 1.97D-02 at cycle   2 NSaved=   2.
 NSaved= 2 IEnMin= 2 EnMin= -5262.44416288736     IErMin= 2 ErrMin= 1.97D-02
 ErrMax= 1.97D-02  0.00D+00 EMaxC= 1.00D-01 BMatC= 2.35D+00 BMatP= 8.75D+00
 IDIUse=3 WtCom= 8.03D-01 WtEn= 1.97D-01
 Coeff-Com: -0.383D+00 0.138D+01
 Coeff-En:   0.263D+00 0.737D+00
 Coeff:     -0.255D+00 0.126D+01
 Gap=     0.063 Goal=   None    Shift=    0.000
 Gap=     0.012 Goal=   None    Shift=    0.000
 RMSDP=2.14D-03 MaxDP=1.80D-01 DE=-2.28D-01 OVMax= 9.76D-01

 Cycle   3  Pass 1  IDiag  1:
 RMSU=  2.13D-03    CP:  9.86D-01  1.38D+00
 E= -5258.43958697397     Delta-E=        4.004575913394 Rises=F Damp=F
 DIIS: error= 1.02D-01 at cycle   3 NSaved=   3.
 NSaved= 3 IEnMin= 2 EnMin= -5262.44416288736     IErMin= 2 ErrMin= 1.97D-02
 ErrMax= 1.02D-01  0.00D+00 EMaxC= 1.00D-01 BMatC= 1.82D+01 BMatP= 2.35D+00
 IDIUse=2 WtCom= 0.00D+00 WtEn= 1.00D+00
 EnCoef did     5 forward-backward iterations
 Coeff-En:   0.152D+00 0.767D+00 0.805D-01
 Coeff:      0.152D+00 0.767D+00 0.805D-01
 Gap=     0.069 Goal=   None    Shift=    0.000
 Gap=     0.009 Goal=   None    Shift=    0.000
 RMSDP=2.13D-03 MaxDP=2.25D-01 DE= 4.00D+00 OVMax= 9.64D-01

 Cycle   4  Pass 1  IDiag  1:
 RMSU=  1.07D-03    CP:  1.00D+00  2.84D+00  1.81D-01
 E= -5261.58142022958     Delta-E=       -3.141833255617 Rises=F Damp=F
 DIIS: error= 7.86D-02 at cycle   4 NSaved=   4.
 NSaved= 4 IEnMin= 2 EnMin= -5262.44416288736     IErMin= 2 ErrMin= 1.97D-02
 ErrMax= 7.86D-02  0.00D+00 EMaxC= 1.00D-01 BMatC= 1.18D+01 BMatP= 2.35D+00
 IDIUse=2 WtCom= 0.00D+00 WtEn= 1.00D+00
 EnCoef did   100 forward-backward iterations
 Coeff-En:   0.563D+00 0.131D-01 0.147D-01 0.409D+00
 Coeff:      0.563D+00 0.131D-01 0.147D-01 0.409D+00
 Gap=     0.209 Goal=   None    Shift=    0.000
 Gap=     0.149 Goal=   None    Shift=    0.000
 RMSDP=1.11D-03 MaxDP=1.68D-01 DE=-3.14D+00 OVMax= 8.01D-01

 Cycle   5  Pass 1  IDiag  1:
 RMSU=  7.96D-04    CP:  1.00D+00  1.53D+00  2.23D-01  4.72D-01
 E= -5262.82355418976     Delta-E=       -1.242133960173 Rises=F Damp=F
 DIIS: error= 2.35D-02 at cycle   5 NSaved=   5.
 NSaved= 5 IEnMin= 5 EnMin= -5262.82355418976     IErMin= 2 ErrMin= 1.97D-02
 ErrMax= 2.35D-02  0.00D+00 EMaxC= 1.00D-01 BMatC= 2.38D+00 BMatP= 2.35D+00
 IDIUse=3 WtCom= 7.65D-01 WtEn= 2.35D-01
 EnCoef did     6 forward-backward iterations
 Coeff-Com:  0.190D+00 0.210D+00 0.504D-01 0.264D+00 0.286D+00
 Coeff-En:   0.272D+00 0.000D+00 0.000D+00 0.253D+00 0.475D+00
 Coeff:      0.209D+00 0.161D+00 0.385D-01 0.261D+00 0.330D+00
 Gap=     0.260 Goal=   None    Shift=    0.000
 Gap=     0.018 Goal=   None    Shift=    0.000
 RMSDP=1.00D-03 MaxDP=2.52D-01 DE=-1.24D+00 OVMax= 9.79D-01

 Cycle   6  Pass 1  IDiag  1:
 RMSU=  7.42D-04    CP:  1.00D+00  1.43D+00  1.80D-01  5.72D-01  1.76D-01
 E= -5262.68105083236     Delta-E=        0.142503357392 Rises=F Damp=F
 DIIS: error= 2.56D-02 at cycle   6 NSaved=   6.
 NSaved= 6 IEnMin= 5 EnMin= -5262.82355418976     IErMin= 2 ErrMin= 1.97D-02
 ErrMax= 2.56D-02  0.00D+00 EMaxC= 1.00D-01 BMatC= 3.40D+00 BMatP= 2.35D+00
 IDIUse=2 WtCom= 0.00D+00 WtEn= 1.00D+00
 Coeff-En:   0.000D+00 0.000D+00 0.000D+00 0.000D+00 0.540D+00 0.460D+00
 Coeff:      0.000D+00 0.000D+00 0.000D+00 0.000D+00 0.540D+00 0.460D+00
 Gap=     0.260 Goal=   None    Shift=    0.000
 Gap=     0.013 Goal=   None    Shift=    0.000
 RMSDP=9.89D-04 MaxDP=1.83D-01 DE= 1.43D-01 OVMax= 7.58D-01

 Cycle   7  Pass 1  IDiag  1:
 RMSU=  7.58D-04    CP:  1.00D+00  2.31D+00  1.32D-01  7.13D-01  1.66D-01
                    CP:  3.22D-01
 E= -5261.47168731116     Delta-E=        1.209363521202 Rises=F Damp=F
 DIIS: error= 1.03D-01 at cycle   7 NSaved=   7.
 NSaved= 7 IEnMin= 5 EnMin= -5262.82355418976     IErMin= 2 ErrMin= 1.97D-02
 ErrMax= 1.03D-01  0.00D+00 EMaxC= 1.00D-01 BMatC= 1.25D+01 BMatP= 2.35D+00
 IDIUse=2 WtCom= 0.00D+00 WtEn= 1.00D+00
 EnCoef did     2 forward-backward iterations
 Coeff-En:   0.000D+00 0.000D+00 0.000D+00 0.000D+00 0.524D+00 0.401D+00
 Coeff-En:   0.745D-01
 Coeff:      0.000D+00 0.000D+00 0.000D+00 0.000D+00 0.524D+00 0.401D+00
 Coeff:      0.745D-01
 Gap=     0.193 Goal=   None    Shift=    0.000
 Gap=     0.004 Goal=   None    Shift=    0.000
 RMSDP=8.08D-04 MaxDP=2.13D-01 DE= 1.21D+00 OVMax= 8.41D-01

 Cycle   8  Pass 1  IDiag  1:
 RMSU=  3.69D-04    CP:  1.00D+00  1.70D+00  1.37D-01  6.56D-01  3.61D-01
                    CP:  3.59D-01  1.36D-01
 E= -5263.20070591833     Delta-E=       -1.729018607171 Rises=F Damp=F
 DIIS: error= 1.45D-02 at cycle   8 NSaved=   8.
 NSaved= 8 IEnMin= 8 EnMin= -5263.20070591833     IErMin= 8 ErrMin= 1.45D-02
 ErrMax= 1.45D-02  0.00D+00 EMaxC= 1.00D-01 BMatC= 5.01D-01 BMatP= 2.35D+00
 IDIUse=3 WtCom= 8.55D-01 WtEn= 1.45D-01
 EnCoef did     4 forward-backward iterations
 Coeff-Com: -0.254D-01 0.321D-01 0.102D-01-0.585D-01 0.348D+00 0.225D+00
 Coeff-Com:  0.625D-01 0.405D+00
 Coeff-En:   0.000D+00 0.000D+00 0.000D+00 0.000D+00 0.282D+00 0.172D+00
 Coeff-En:   0.424D-03 0.545D+00
 Coeff:     -0.217D-01 0.275D-01 0.870D-02-0.500D-01 0.339D+00 0.218D+00
 Coeff:      0.535D-01 0.426D+00
 Gap=     0.175 Goal=   None    Shift=    0.000
 Gap=     0.018 Goal=   None    Shift=    0.000
 RMSDP=6.11D-04 MaxDP=1.69D-01 DE=-1.73D+00 OVMax= 7.90D-01

 Cycle   9  Pass 1  IDiag  1:
 RMSU=  3.59D-04    CP:  1.00D+00  1.59D+00  1.76D-01  5.56D-01  4.11D-01
                    CP:  4.82D-01  4.94D-01 -1.75D-02
 E= -5262.94707107672     Delta-E=        0.253634841611 Rises=F Damp=F
 DIIS: error= 2.76D-02 at cycle   9 NSaved=   9.
 NSaved= 9 IEnMin= 8 EnMin= -5263.20070591833     IErMin= 8 ErrMin= 1.45D-02
 ErrMax= 2.76D-02  0.00D+00 EMaxC= 1.00D-01 BMatC= 1.82D+00 BMatP= 5.01D-01
 IDIUse=2 WtCom= 0.00D+00 WtEn= 1.00D+00
 EnCoef did     3 forward-backward iterations
 Coeff-En:   0.000D+00 0.000D+00 0.000D+00 0.000D+00 0.196D+00 0.126D-02
 Coeff-En:   0.000D+00 0.555D+00 0.247D+00
 Coeff:      0.000D+00 0.000D+00 0.000D+00 0.000D+00 0.196D+00 0.126D-02
 Coeff:      0.000D+00 0.555D+00 0.247D+00
 Gap=     0.144 Goal=   None    Shift=    0.000
 Gap=     0.015 Goal=   None    Shift=    0.000
 RMSDP=7.14D-04 MaxDP=2.26D-01 DE= 2.54D-01 OVMax= 9.58D-01

 Cycle  10  Pass 1  IDiag  1:
 RMSU=  3.88D-04    CP:  1.00D+00  1.33D+00  1.90D-01  4.75D-01  5.02D-01
                    CP:  5.90D-01 -8.48D-02  5.28D-01  1.37D-01
 E= -5262.91199181300     Delta-E=        0.035079263725 Rises=F Damp=F
 DIIS: error= 2.51D-02 at cycle  10 NSaved=  10.
 NSaved=10 IEnMin= 8 EnMin= -5263.20070591833     IErMin= 8 ErrMin= 1.45D-02
 ErrMax= 2.51D-02  0.00D+00 EMaxC= 1.00D-01 BMatC= 2.01D+00 BMatP= 5.01D-01
 IDIUse=2 WtCom= 0.00D+00 WtEn= 1.00D+00
 EnCoef did     4 forward-backward iterations
 Coeff-En:   0.000D+00 0.000D+00 0.000D+00 0.000D+00 0.183D+00 0.000D+00
 Coeff-En:   0.000D+00 0.448D+00 0.246D+00 0.123D+00
 Coeff:      0.000D+00 0.000D+00 0.000D+00 0.000D+00 0.183D+00 0.000D+00
 Coeff:      0.000D+00 0.448D+00 0.246D+00 0.123D+00
 Gap=     0.153 Goal=   None    Shift=    0.000
 Gap=     0.013 Goal=   None    Shift=    0.000
 RMSDP=6.09D-04 MaxDP=1.98D-01 DE= 3.51D-02 OVMax= 8.46D-01

 Cycle  11  Pass 1  IDiag  1:
 RMSU=  1.52D-04    CP:  1.00D+00  1.45D+00  1.70D-01  5.16D-01  7.16D-01
                    CP:  1.95D-01  1.20D-01  6.16D-01  8.38D-02 -1.57D-01
 E= -5263.19745404919     Delta-E=       -0.285462236192 Rises=F Damp=F
 DIIS: error= 1.09D-02 at cycle  11 NSaved=  11.
 NSaved=11 IEnMin= 8 EnMin= -5263.20070591833     IErMin=11 ErrMin= 1.09D-02
 ErrMax= 1.09D-02  0.00D+00 EMaxC= 1.00D-01 BMatC= 4.87D-01 BMatP= 5.01D-01
 IDIUse=3 WtCom= 8.91D-01 WtEn= 1.09D-01
 EnCoef did     3 forward-backward iterations
 Coeff-Com: -0.126D-01 0.508D-02 0.319D-02 0.102D-01-0.253D-01-0.461D-01
 Coeff-Com: -0.430D-01 0.369D+00 0.274D+00 0.121D+00 0.345D+00
 Coeff-En:   0.000D+00 0.000D+00 0.000D+00 0.000D+00 0.000D+00 0.000D+00
 Coeff-En:   0.000D+00 0.308D+00 0.188D+00 0.100D+00 0.404D+00
 Coeff:     -0.112D-01 0.452D-02 0.284D-02 0.912D-02-0.225D-01-0.410D-01
 Coeff:     -0.383D-01 0.362D+00 0.265D+00 0.119D+00 0.351D+00
 Gap=     0.159 Goal=   None    Shift=    0.000
 Gap=     0.014 Goal=   None    Shift=    0.000
 RMSDP=3.22D-04 MaxDP=1.02D-01 DE=-2.85D-01 OVMax= 4.57D-01

 Cycle  12  Pass 1  IDiag  1:
 RMSU=  1.22D-04    CP:  1.00D+00  1.53D+00  1.57D-01  5.89D-01  4.56D-01
                    CP:  3.46D-01  1.06D-01  7.35D-01  3.42D-01  3.32D-02
                    CP:  3.62D-01
 E= -5263.28639589751     Delta-E=       -0.088941848322 Rises=F Damp=F
 DIIS: error= 3.36D-03 at cycle  12 NSaved=  12.
 NSaved=12 IEnMin=12 EnMin= -5263.28639589751     IErMin=12 ErrMin= 3.36D-03
 ErrMax= 3.36D-03  0.00D+00 EMaxC= 1.00D-01 BMatC= 2.57D-02 BMatP= 4.87D-01
 IDIUse=3 WtCom= 9.66D-01 WtEn= 3.36D-02
 EnCoef did     2 forward-backward iterations
 Coeff-Com:  0.111D-01-0.171D-01-0.869D-03 0.144D-01-0.582D-01-0.334D-01
 Coeff-Com: -0.179D-01 0.126D+00 0.107D+00 0.244D-01 0.274D+00 0.571D+00
 Coeff-En:   0.000D+00 0.000D+00 0.000D+00 0.000D+00 0.000D+00 0.000D+00
 Coeff-En:   0.000D+00 0.000D+00 0.118D-02 0.000D+00 0.113D+00 0.886D+00
 Coeff:      0.107D-01-0.166D-01-0.840D-03 0.139D-01-0.562D-01-0.323D-01
 Coeff:     -0.173D-01 0.122D+00 0.103D+00 0.236D-01 0.268D+00 0.581D+00
 Gap=     0.159 Goal=   None    Shift=    0.000
 Gap=     0.016 Goal=   None    Shift=    0.000
 RMSDP=6.51D-05 MaxDP=1.36D-02 DE=-8.89D-02 OVMax= 5.35D-02

 Cycle  13  Pass 1  IDiag  1:
 RMSU=  4.75D-05    CP:  1.00D+00  1.51D+00  1.55D-01  5.86D-01  4.56D-01
                    CP:  3.40D-01  1.29D-01  7.26D-01  3.68D-01 -2.25D-02
                    CP:  4.98D-01  8.00D-01
 E= -5263.28858641662     Delta-E=       -0.002190519106 Rises=F Damp=F
 DIIS: error= 1.88D-03 at cycle  13 NSaved=  13.
 NSaved=13 IEnMin=13 EnMin= -5263.28858641662     IErMin=13 ErrMin= 1.88D-03
 ErrMax= 1.88D-03  0.00D+00 EMaxC= 1.00D-01 BMatC= 1.02D-02 BMatP= 2.57D-02
 IDIUse=3 WtCom= 9.81D-01 WtEn= 1.88D-02
 EnCoef did     4 forward-backward iterations
 Coeff-Com:  0.117D-01-0.149D-01-0.688D-03 0.420D-02-0.210D-01-0.817D-02
 Coeff-Com: -0.230D-02 0.357D-01 0.118D-01-0.192D-01 0.133D+00 0.465D+00
 Coeff-Com:  0.405D+00
 Coeff-En:   0.000D+00 0.000D+00 0.000D+00 0.000D+00 0.000D+00 0.000D+00
 Coeff-En:   0.000D+00 0.000D+00 0.000D+00 0.000D+00 0.625D-01 0.345D+00
 Coeff-En:   0.592D+00
 Coeff:      0.115D-01-0.147D-01-0.675D-03 0.412D-02-0.206D-01-0.802D-02
 Coeff:     -0.225D-02 0.350D-01 0.116D-01-0.189D-01 0.132D+00 0.463D+00
 Coeff:      0.408D+00
 Gap=     0.161 Goal=   None    Shift=    0.000
 Gap=     0.016 Goal=   None    Shift=    0.000
 RMSDP=3.69D-05 MaxDP=5.02D-03 DE=-2.19D-03 OVMax= 2.65D-02

 Cycle  14  Pass 1  IDiag  1:
 RMSU=  1.62D-05    CP:  1.00D+00  1.52D+00  1.55D-01  5.86D-01  4.62D-01
                    CP:  3.33D-01  1.21D-01  7.55D-01  3.33D-01 -7.43D-03
                    CP:  4.57D-01  8.30D-01  4.61D-01
 E= -5263.29023257037     Delta-E=       -0.001646153751 Rises=F Damp=F
 DIIS: error= 1.21D-03 at cycle  14 NSaved=  14.
 NSaved=14 IEnMin=14 EnMin= -5263.29023257037     IErMin=14 ErrMin= 1.21D-03
 ErrMax= 1.21D-03  0.00D+00 EMaxC= 1.00D-01 BMatC= 2.47D-03 BMatP= 1.02D-02
 IDIUse=3 WtCom= 9.88D-01 WtEn= 1.21D-02
 EnCoef did     3 forward-backward iterations
 Coeff-Com:  0.334D-02-0.399D-02-0.206D-03 0.152D-02-0.101D-01-0.245D-02
 Coeff-Com:  0.620D-05 0.610D-02 0.196D-02-0.174D-01 0.879D-01 0.226D+00
 Coeff-Com:  0.259D+00 0.449D+00
 Coeff-En:   0.000D+00 0.000D+00 0.000D+00 0.000D+00 0.000D+00 0.000D+00
 Coeff-En:   0.000D+00 0.000D+00 0.000D+00 0.000D+00 0.168D-01 0.000D+00
 Coeff-En:   0.667D-01 0.916D+00
 Coeff:      0.330D-02-0.394D-02-0.204D-03 0.150D-02-0.998D-02-0.242D-02
 Coeff:      0.613D-05 0.602D-02 0.194D-02-0.172D-01 0.871D-01 0.223D+00
 Coeff:      0.257D+00 0.454D+00
 Gap=     0.161 Goal=   None    Shift=    0.000
 Gap=     0.016 Goal=   None    Shift=    0.000
 RMSDP=1.24D-05 MaxDP=2.39D-03 DE=-1.65D-03 OVMax= 1.07D-02

 Cycle  15  Pass 1  IDiag  1:
 RMSU=  8.13D-06    CP:  1.00D+00  1.51D+00  1.55D-01  5.84D-01  4.64D-01
                    CP:  3.30D-01  1.24D-01  7.46D-01  3.40D-01 -1.57D-02
                    CP:  4.78D-01  8.40D-01  5.11D-01  6.73D-01
 E= -5263.29047462558     Delta-E=       -0.000242055212 Rises=F Damp=F
 DIIS: error= 7.14D-04 at cycle  15 NSaved=  15.
 NSaved=15 IEnMin=15 EnMin= -5263.29047462558     IErMin=15 ErrMin= 7.14D-04
 ErrMax= 7.14D-04  0.00D+00 EMaxC= 1.00D-01 BMatC= 1.13D-03 BMatP= 2.47D-03
 IDIUse=3 WtCom= 9.93D-01 WtEn= 7.14D-03
 Coeff-Com: -0.251D-02 0.296D-02-0.154D-03 0.617D-03-0.293D-02 0.209D-02
 Coeff-Com:  0.452D-03-0.115D-01-0.312D-02-0.114D-01 0.514D-01 0.166D-01
 Coeff-Com:  0.738D-01 0.337D+00 0.547D+00
 Coeff-En:   0.000D+00 0.000D+00 0.000D+00 0.000D+00 0.000D+00 0.000D+00
 Coeff-En:   0.000D+00 0.000D+00 0.000D+00 0.000D+00 0.385D-02 0.000D+00
 Coeff-En:   0.000D+00 0.000D+00 0.996D+00
 Coeff:     -0.249D-02 0.294D-02-0.153D-03 0.613D-03-0.291D-02 0.208D-02
 Coeff:      0.448D-03-0.115D-01-0.310D-02-0.113D-01 0.511D-01 0.164D-01
 Coeff:      0.732D-01 0.334D+00 0.551D+00
 Gap=     0.160 Goal=   None    Shift=    0.000
 Gap=     0.016 Goal=   None    Shift=    0.000
 RMSDP=7.85D-06 MaxDP=1.74D-03 DE=-2.42D-04 OVMax= 8.12D-03

 Cycle  16  Pass 1  IDiag  1:
 RMSU=  5.51D-06    CP:  1.00D+00  1.51D+00  1.55D-01  5.84D-01  4.67D-01
                    CP:  3.28D-01  1.26D-01  7.43D-01  3.42D-01 -2.28D-02
                    CP:  4.87D-01  8.36D-01  5.32D-01  8.27D-01  7.78D-01
 E= -5263.29058752183     Delta-E=       -0.000112896247 Rises=F Damp=F
 DIIS: error= 4.24D-04 at cycle  16 NSaved=  16.
 NSaved=16 IEnMin=16 EnMin= -5263.29058752183     IErMin=16 ErrMin= 4.24D-04
 ErrMax= 4.24D-04  0.00D+00 EMaxC= 1.00D-01 BMatC= 5.32D-04 BMatP= 1.13D-03
 IDIUse=3 WtCom= 9.96D-01 WtEn= 4.24D-03
 Coeff-Com: -0.461D-02 0.548D-02-0.104D-03 0.712D-03-0.105D-02 0.897D-03
 Coeff-Com:  0.257D-03-0.109D-01-0.293D-02-0.392D-02 0.333D-01-0.439D-01
 Coeff-Com: -0.204D-02 0.130D+00 0.450D+00 0.449D+00
 Coeff-En:   0.000D+00 0.000D+00 0.000D+00 0.000D+00 0.000D+00 0.000D+00
 Coeff-En:   0.000D+00 0.000D+00 0.000D+00 0.000D+00 0.000D+00 0.000D+00
 Coeff-En:   0.000D+00 0.000D+00 0.000D+00 0.100D+01
 Coeff:     -0.459D-02 0.546D-02-0.103D-03 0.709D-03-0.104D-02 0.893D-03
 Coeff:      0.256D-03-0.108D-01-0.292D-02-0.390D-02 0.332D-01-0.437D-01
 Coeff:     -0.203D-02 0.129D+00 0.448D+00 0.451D+00
 Gap=     0.160 Goal=   None    Shift=    0.000
 Gap=     0.016 Goal=   None    Shift=    0.000
 RMSDP=7.98D-06 MaxDP=2.19D-03 DE=-1.13D-04 OVMax= 1.10D-02

 Cycle  17  Pass 1  IDiag  1:
 RMSU=  3.45D-06    CP:  1.00D+00  1.51D+00  1.56D-01  5.83D-01  4.71D-01
                    CP:  3.24D-01  1.25D-01  7.45D-01  3.37D-01 -2.52D-02
                    CP:  5.06D-01  8.20D-01  5.34D-01  8.83D-01  1.02D+00
                    CP:  8.51D-01
 E= -5263.29067819877     Delta-E=       -0.000090676942 Rises=F Damp=F
 DIIS: error= 1.64D-04 at cycle  17 NSaved=  17.
 NSaved=17 IEnMin=17 EnMin= -5263.29067819877     IErMin=17 ErrMin= 1.64D-04
 ErrMax= 1.64D-04  0.00D+00 EMaxC= 1.00D-01 BMatC= 6.36D-05 BMatP= 5.32D-04
 IDIUse=3 WtCom= 9.98D-01 WtEn= 1.64D-03
 Coeff-Com: -0.332D-02 0.389D-02-0.653D-04 0.633D-03-0.509D-03 0.427D-03
 Coeff-Com: -0.406D-04-0.321D-02-0.154D-02-0.989D-03 0.139D-01-0.279D-01
 Coeff-Com: -0.148D-01-0.105D-01 0.130D+00 0.255D+00 0.659D+00
 Coeff-En:   0.000D+00 0.000D+00 0.000D+00 0.000D+00 0.000D+00 0.000D+00
 Coeff-En:   0.000D+00 0.000D+00 0.000D+00 0.000D+00 0.000D+00 0.000D+00
 Coeff-En:   0.000D+00 0.000D+00 0.000D+00 0.000D+00 0.100D+01
 Coeff:     -0.331D-02 0.389D-02-0.652D-04 0.632D-03-0.508D-03 0.426D-03
 Coeff:     -0.406D-04-0.320D-02-0.154D-02-0.987D-03 0.139D-01-0.279D-01
 Coeff:     -0.148D-01-0.105D-01 0.130D+00 0.254D+00 0.660D+00
 Gap=     0.160 Goal=   None    Shift=    0.000
 Gap=     0.016 Goal=   None    Shift=    0.000
 RMSDP=3.60D-06 MaxDP=5.26D-04 DE=-9.07D-05 OVMax= 4.91D-03

 Cycle  18  Pass 1  IDiag  1:
 RMSU=  1.82D-06    CP:  1.00D+00  1.51D+00  1.56D-01  5.83D-01  4.72D-01
                    CP:  3.22D-01  1.26D-01  7.45D-01  3.37D-01 -2.76D-02
                    CP:  5.11D-01  8.16D-01  5.41D-01  9.38D-01  1.18D+00
                    CP:  1.19D+00  1.26D+00
 E= -5263.29068687794     Delta-E=       -0.000008679175 Rises=F Damp=F
 DIIS: error= 8.75D-05 at cycle  18 NSaved=  18.
 NSaved=18 IEnMin=18 EnMin= -5263.29068687794     IErMin=18 ErrMin= 8.75D-05
 ErrMax= 8.75D-05  0.00D+00 EMaxC= 1.00D-01 BMatC= 2.11D-05 BMatP= 6.36D-05
 IDIUse=1 WtCom= 1.00D+00 WtEn= 0.00D+00
 Coeff-Com: -0.173D-02 0.203D-02-0.773D-04 0.162D-03-0.273D-04 0.816D-04
 Coeff-Com: -0.988D-05 0.197D-02-0.624D-03 0.937D-04 0.193D-02 0.861D-03
 Coeff-Com: -0.201D-02-0.359D-01-0.516D-01-0.193D-01 0.472D+00 0.632D+00
 Coeff:     -0.173D-02 0.203D-02-0.773D-04 0.162D-03-0.273D-04 0.816D-04
 Coeff:     -0.988D-05 0.197D-02-0.624D-03 0.937D-04 0.193D-02 0.861D-03
 Coeff:     -0.201D-02-0.359D-01-0.516D-01-0.193D-01 0.472D+00 0.632D+00
 Gap=     0.160 Goal=   None    Shift=    0.000
 Gap=     0.016 Goal=   None    Shift=    0.000
 RMSDP=3.12D-06 MaxDP=4.70D-04 DE=-8.68D-06 OVMax= 4.48D-03

 Cycle  19  Pass 1  IDiag  1:
 RMSU=  1.19D-06    CP:  1.00D+00  1.51D+00  1.55D-01  5.83D-01  4.72D-01
                    CP:  3.22D-01  1.26D-01  7.46D-01  3.36D-01 -2.80D-02
                    CP:  5.12D-01  8.13D-01  5.45D-01  9.83D-01  1.32D+00
                    CP:  1.43D+00  1.77D+00  1.50D+00
 E= -5263.29069075634     Delta-E=       -0.000003878398 Rises=F Damp=F
 DIIS: error= 3.49D-05 at cycle  19 NSaved=  19.
 NSaved=19 IEnMin=19 EnMin= -5263.29069075634     IErMin=19 ErrMin= 3.49D-05
 ErrMax= 3.49D-05  0.00D+00 EMaxC= 1.00D-01 BMatC= 3.86D-06 BMatP= 2.11D-05
 IDIUse=1 WtCom= 1.00D+00 WtEn= 0.00D+00
 Coeff-Com: -0.661D-03 0.794D-03-0.357D-04-0.841D-04 0.552D-04 0.586D-04
 Coeff-Com:  0.624D-04 0.163D-02-0.345D-03 0.354D-04-0.603D-03 0.718D-02
 Coeff-Com:  0.400D-02-0.450D-02-0.407D-01-0.793D-01 0.816D-01 0.239D+00
 Coeff-Com:  0.791D+00
 Coeff:     -0.661D-03 0.794D-03-0.357D-04-0.841D-04 0.552D-04 0.586D-04
 Coeff:      0.624D-04 0.163D-02-0.345D-03 0.354D-04-0.603D-03 0.718D-02
 Coeff:      0.400D-02-0.450D-02-0.407D-01-0.793D-01 0.816D-01 0.239D+00
 Coeff:      0.791D+00
 Gap=     0.160 Goal=   None    Shift=    0.000
 Gap=     0.016 Goal=   None    Shift=    0.000
 RMSDP=3.09D-06 MaxDP=5.08D-04 DE=-3.88D-06 OVMax= 4.53D-03

 Cycle  20  Pass 1  IDiag  1:
 RMSU=  6.31D-07    CP:  1.00D+00  1.51D+00  1.55D-01  5.83D-01  4.72D-01
                    CP:  3.22D-01  1.26D-01  7.47D-01  3.35D-01 -2.72D-02
                    CP:  5.12D-01  8.11D-01  5.48D-01  1.03D+00  1.44D+00
                    CP:  1.64D+00  2.28D+00  2.22D+00  1.65D+00
 E= -5263.29069180855     Delta-E=       -0.000001052207 Rises=F Damp=F
 DIIS: error= 2.80D-05 at cycle  20 NSaved=  20.
 NSaved=20 IEnMin=20 EnMin= -5263.29069180855     IErMin=20 ErrMin= 2.80D-05
 ErrMax= 2.80D-05  0.00D+00 EMaxC= 1.00D-01 BMatC= 2.06D-06 BMatP= 3.86D-06
 IDIUse=1 WtCom= 1.00D+00 WtEn= 0.00D+00
 Coeff-Com: -0.206D-03 0.273D-03 0.117D-07-0.102D-03 0.134D-03 0.762D-04
 Coeff-Com:  0.367D-04 0.533D-03 0.641D-04-0.810D-04-0.155D-02 0.224D-02
 Coeff-Com:  0.400D-03 0.243D-02-0.167D-01-0.471D-01-0.649D-01-0.207D-01
 Coeff-Com:  0.637D+00 0.508D+00
 Coeff:     -0.206D-03 0.273D-03 0.117D-07-0.102D-03 0.134D-03 0.762D-04
 Coeff:      0.367D-04 0.533D-03 0.641D-04-0.810D-04-0.155D-02 0.224D-02
 Coeff:      0.400D-03 0.243D-02-0.167D-01-0.471D-01-0.649D-01-0.207D-01
 Coeff:      0.637D+00 0.508D+00
 Gap=     0.160 Goal=   None    Shift=    0.000
 Gap=     0.016 Goal=   None    Shift=    0.000
 RMSDP=2.47D-06 MaxDP=4.02D-04 DE=-1.05D-06 OVMax= 3.63D-03

 Cycle  21  Pass 1  IDiag  1:
 Restarting incremental Fock formation.
 E= -5263.29069254866     Delta-E=       -0.000000740109 Rises=F Damp=F
 DIIS: error= 2.11D-05 at cycle  21 NSaved=  20.
 NSaved=20 IEnMin=20 EnMin= -5263.29069254866     IErMin=20 ErrMin= 2.11D-05
 ErrMax= 2.11D-05  0.00D+00 EMaxC= 1.00D-01 BMatC= 1.29D-06 BMatP= 2.06D-06
 IDIUse=1 WtCom= 1.00D+00 WtEn= 0.00D+00
 Coeff-Com:  0.466D-04-0.371D-04 0.787D-07 0.158D-03 0.311D-04-0.189D-04
 Coeff-Com: -0.335D-03 0.346D-03-0.798D-04-0.155D-02-0.302D-02-0.305D-02
 Coeff-Com: -0.179D-02 0.284D-02 0.190D-01-0.482D-01-0.842D-01 0.892D-01
 Coeff-Com:  0.302D+00 0.729D+00
 Coeff:      0.466D-04-0.371D-04 0.787D-07 0.158D-03 0.311D-04-0.189D-04
 Coeff:     -0.335D-03 0.346D-03-0.798D-04-0.155D-02-0.302D-02-0.305D-02
 Coeff:     -0.179D-02 0.284D-02 0.190D-01-0.482D-01-0.842D-01 0.892D-01
 Coeff:      0.302D+00 0.729D+00
 Gap=     0.160 Goal=   None    Shift=    0.000
 Gap=     0.016 Goal=   None    Shift=    0.000
 RMSDP=2.58D-06 MaxDP=4.40D-04 DE=-7.40D-07 OVMax= 3.81D-03

 Cycle  22  Pass 1  IDiag  1:
 RMSU=  2.58D-06    CP:  1.00D+00
 E= -5263.29069284668     Delta-E=       -0.000000298018 Rises=F Damp=F
 DIIS: error= 3.01D-05 at cycle  22 NSaved=  20.
 NSaved=20 IEnMin=20 EnMin= -5263.29069284668     IErMin=19 ErrMin= 2.11D-05
 ErrMax= 3.01D-05  0.00D+00 EMaxC= 1.00D-01 BMatC= 2.60D-06 BMatP= 1.29D-06
 IDIUse=1 WtCom= 1.00D+00 WtEn= 0.00D+00
 Coeff-Com:  0.251D-03-0.297D-03 0.722D-04 0.106D-03 0.200D-04-0.123D-02
 Coeff-Com:  0.263D-03 0.353D-05-0.925D-03-0.588D-02-0.251D-02-0.207D-02
 Coeff-Com:  0.243D-01 0.994D-01 0.346D-01-0.172D-01-0.585D+00-0.373D+00
 Coeff-Com:  0.661D+00 0.117D+01
 Coeff:      0.251D-03-0.297D-03 0.722D-04 0.106D-03 0.200D-04-0.123D-02
 Coeff:      0.263D-03 0.353D-05-0.925D-03-0.588D-02-0.251D-02-0.207D-02
 Coeff:      0.243D-01 0.994D-01 0.346D-01-0.172D-01-0.585D+00-0.373D+00
 Coeff:      0.661D+00 0.117D+01
 Gap=     0.160 Goal=   None    Shift=    0.000
 Gap=     0.016 Goal=   None    Shift=    0.000
 RMSDP=4.77D-06 MaxDP=8.46D-04 DE=-2.98D-07 OVMax= 7.04D-03

 Cycle  23  Pass 1  IDiag  1:
 RMSU=  8.30D-07    CP:  1.00D+00  2.82D+00
 E= -5263.29069389606     Delta-E=       -0.000001049386 Rises=F Damp=F
 DIIS: error= 2.40D-05 at cycle  23 NSaved=  20.
 NSaved=20 IEnMin=20 EnMin= -5263.29069389606     IErMin=18 ErrMin= 2.11D-05
 ErrMax= 2.40D-05  0.00D+00 EMaxC= 1.00D-01 BMatC= 1.66D-06 BMatP= 1.29D-06
 IDIUse=1 WtCom= 1.00D+00 WtEn= 0.00D+00
 Coeff-Com:  0.430D-03-0.536D-03 0.714D-04-0.474D-04-0.326D-03-0.278D-04
 Coeff-Com:  0.120D-03-0.209D-03 0.488D-03 0.349D-02 0.482D-02 0.162D-01
 Coeff-Com:  0.637D-01 0.604D-01 0.111D+00-0.451D+00-0.607D+00-0.220D+00
 Coeff-Com:  0.833D+00 0.119D+01
 Coeff:      0.430D-03-0.536D-03 0.714D-04-0.474D-04-0.326D-03-0.278D-04
 Coeff:      0.120D-03-0.209D-03 0.488D-03 0.349D-02 0.482D-02 0.162D-01
 Coeff:      0.637D-01 0.604D-01 0.111D+00-0.451D+00-0.607D+00-0.220D+00
 Coeff:      0.833D+00 0.119D+01
 Gap=     0.160 Goal=   None    Shift=    0.000
 Gap=     0.016 Goal=   None    Shift=    0.000
 RMSDP=5.78D-06 MaxDP=1.06D-03 DE=-1.05D-06 OVMax= 8.54D-03

 Cycle  24  Pass 1  IDiag  1:
 RMSU=  5.19D-06    CP:  1.00D+00  3.00D+00  2.52D+00
 E= -5263.29069480688     Delta-E=       -0.000000910815 Rises=F Damp=F
 DIIS: error= 1.90D-05 at cycle  24 NSaved=  20.
 NSaved=20 IEnMin=20 EnMin= -5263.29069480688     IErMin=20 ErrMin= 1.90D-05
 ErrMax= 1.90D-05  0.00D+00 EMaxC= 1.00D-01 BMatC= 7.78D-07 BMatP= 1.29D-06
 IDIUse=1 WtCom= 1.00D+00 WtEn= 0.00D+00
 Coeff-Com:  0.263D-05-0.367D-04-0.104D-04 0.125D-03-0.202D-03 0.135D-03
 Coeff-Com:  0.834D-03 0.558D-03 0.803D-03-0.463D-02-0.360D-02 0.136D-01
 Coeff-Com:  0.132D+00 0.208D+00-0.176D+00-0.438D+00-0.659D+00 0.110D+00
 Coeff-Com:  0.991D+00 0.825D+00
 Coeff:      0.263D-05-0.367D-04-0.104D-04 0.125D-03-0.202D-03 0.135D-03
 Coeff:      0.834D-03 0.558D-03 0.803D-03-0.463D-02-0.360D-02 0.136D-01
 Coeff:      0.132D+00 0.208D+00-0.176D+00-0.438D+00-0.659D+00 0.110D+00
 Coeff:      0.991D+00 0.825D+00
 Gap=     0.160 Goal=   None    Shift=    0.000
 Gap=     0.016 Goal=   None    Shift=    0.000
 RMSDP=4.62D-06 MaxDP=8.31D-04 DE=-9.11D-07 OVMax= 6.80D-03

 Cycle  25  Pass 1  IDiag  1:
 RMSU=  1.00D-06    CP:  1.00D+00  3.00D+00  3.00D+00  1.86D+00
 E= -5263.29069514440     Delta-E=       -0.000000337526 Rises=F Damp=F
 DIIS: error= 1.90D-05 at cycle  25 NSaved=  20.
 NSaved=20 IEnMin=20 EnMin= -5263.29069514440     IErMin=20 ErrMin= 1.90D-05
 ErrMax= 1.90D-05  0.00D+00 EMaxC= 1.00D-01 BMatC= 8.43D-07 BMatP= 7.78D-07
 IDIUse=1 WtCom= 1.00D+00 WtEn= 0.00D+00
 Coeff-Com: -0.807D-04-0.157D-04 0.175D-03-0.916D-04 0.824D-04 0.700D-03
 Coeff-Com:  0.925D-03-0.747D-03-0.570D-02-0.122D-01-0.209D-01 0.561D-01
 Coeff-Com:  0.813D-01-0.456D-01-0.887D-01-0.322D+00-0.150D+00 0.170D+00
 Coeff-Com:  0.753D+00 0.584D+00
 Coeff:     -0.807D-04-0.157D-04 0.175D-03-0.916D-04 0.824D-04 0.700D-03
 Coeff:      0.925D-03-0.747D-03-0.570D-02-0.122D-01-0.209D-01 0.561D-01
 Coeff:      0.813D-01-0.456D-01-0.887D-01-0.322D+00-0.150D+00 0.170D+00
 Coeff:      0.753D+00 0.584D+00
 Gap=     0.160 Goal=   None    Shift=    0.000
 Gap=     0.016 Goal=   None    Shift=    0.000
 RMSDP=3.31D-06 MaxDP=5.90D-04 DE=-3.38D-07 OVMax= 4.90D-03

 Cycle  26  Pass 1  IDiag  1:
 RMSU=  3.51D-07    CP:  1.00D+00  3.00D+00  3.00D+00  2.49D+00  1.35D+00
 E= -5263.29069540358     Delta-E=       -0.000000259175 Rises=F Damp=F
 DIIS: error= 8.20D-06 at cycle  26 NSaved=  20.
 NSaved=20 IEnMin=20 EnMin= -5263.29069540358     IErMin=20 ErrMin= 8.20D-06
 ErrMax= 8.20D-06  0.00D+00 EMaxC= 1.00D-01 BMatC= 1.46D-07 BMatP= 7.78D-07
 IDIUse=1 WtCom= 1.00D+00 WtEn= 0.00D+00
 Coeff-Com: -0.392D-04 0.152D-03-0.428D-04 0.323D-05 0.278D-03 0.868D-03
 Coeff-Com: -0.753D-03-0.173D-02-0.936D-02-0.308D-01-0.164D-01-0.232D-01
 Coeff-Com:  0.698D-01 0.156D+00 0.231D-01-0.189D+00-0.331D+00 0.297D+00
 Coeff-Com:  0.428D+00 0.628D+00
 Coeff:     -0.392D-04 0.152D-03-0.428D-04 0.323D-05 0.278D-03 0.868D-03
 Coeff:     -0.753D-03-0.173D-02-0.936D-02-0.308D-01-0.164D-01-0.232D-01
 Coeff:      0.698D-01 0.156D+00 0.231D-01-0.189D+00-0.331D+00 0.297D+00
 Coeff:      0.428D+00 0.628D+00
 Gap=     0.160 Goal=   None    Shift=    0.000
 Gap=     0.016 Goal=   None    Shift=    0.000
 RMSDP=1.08D-06 MaxDP=1.97D-04 DE=-2.59D-07 OVMax= 1.60D-03

 Cycle  27  Pass 1  IDiag  1:
 RMSU=  2.11D-07    CP:  1.00D+00  3.00D+00  3.00D+00  2.69D+00  1.38D+00
                    CP:  1.44D+00
 E= -5263.29069544694     Delta-E=       -0.000000043361 Rises=F Damp=F
 DIIS: error= 1.88D-06 at cycle  27 NSaved=  20.
 NSaved=20 IEnMin=20 EnMin= -5263.29069544694     IErMin=20 ErrMin= 1.88D-06
 ErrMax= 1.88D-06  0.00D+00 EMaxC= 1.00D-01 BMatC= 9.76D-09 BMatP= 1.46D-07
 IDIUse=1 WtCom= 1.00D+00 WtEn= 0.00D+00
 Coeff-Com:  0.319D-04 0.141D-04-0.124D-04-0.508D-04 0.917D-04-0.170D-03
 Coeff-Com: -0.177D-03-0.181D-02-0.605D-02-0.801D-02-0.109D-01 0.195D-01
 Coeff-Com:  0.498D-01 0.232D-01-0.337D-01-0.105D+00-0.367D-02 0.349D-01
 Coeff-Com:  0.237D+00 0.806D+00
 Coeff:      0.319D-04 0.141D-04-0.124D-04-0.508D-04 0.917D-04-0.170D-03
 Coeff:     -0.177D-03-0.181D-02-0.605D-02-0.801D-02-0.109D-01 0.195D-01
 Coeff:      0.498D-01 0.232D-01-0.337D-01-0.105D+00-0.367D-02 0.349D-01
 Coeff:      0.237D+00 0.806D+00
 Gap=     0.160 Goal=   None    Shift=    0.000
 Gap=     0.016 Goal=   None    Shift=    0.000
 RMSDP=5.12D-07 MaxDP=9.48D-05 DE=-4.34D-08 OVMax= 7.55D-04

 Cycle  28  Pass 1  IDiag  1:
 RMSU=  1.09D-07    CP:  1.00D+00  3.00D+00  3.00D+00  2.78D+00  1.49D+00
                    CP:  1.64D+00  1.52D+00
 E= -5263.29069545202     Delta-E=       -0.000000005086 Rises=F Damp=F
 DIIS: error= 2.18D-06 at cycle  28 NSaved=  20.
 NSaved=20 IEnMin=20 EnMin= -5263.29069545202     IErMin=19 ErrMin= 1.88D-06
 ErrMax= 2.18D-06  0.00D+00 EMaxC= 1.00D-01 BMatC= 7.19D-09 BMatP= 9.76D-09
 IDIUse=1 WtCom= 1.00D+00 WtEn= 0.00D+00
 Coeff-Com: -0.111D-04 0.205D-04-0.784D-04-0.956D-04 0.411D-04-0.274D-03
 Coeff-Com:  0.422D-03 0.375D-02 0.207D-02 0.402D-02-0.114D-01-0.260D-01
 Coeff-Com: -0.974D-02 0.343D-01 0.544D-01-0.591D-01-0.645D-01-0.397D-02
 Coeff-Com:  0.323D+00 0.753D+00
 Coeff:     -0.111D-04 0.205D-04-0.784D-04-0.956D-04 0.411D-04-0.274D-03
 Coeff:      0.422D-03 0.375D-02 0.207D-02 0.402D-02-0.114D-01-0.260D-01
 Coeff:     -0.974D-02 0.343D-01 0.544D-01-0.591D-01-0.645D-01-0.397D-02
 Coeff:      0.323D+00 0.753D+00
 Gap=     0.160 Goal=   None    Shift=    0.000
 Gap=     0.016 Goal=   None    Shift=    0.000
 RMSDP=1.40D-07 MaxDP=1.68D-05 DE=-5.09D-09 OVMax= 2.05D-04

 Cycle  29  Pass 1  IDiag  1:
 RMSU=  6.97D-08    CP:  1.00D+00  3.00D+00  3.00D+00  2.79D+00  1.53D+00
                    CP:  1.74D+00  1.83D+00  1.43D+00
 E= -5263.29069545469     Delta-E=       -0.000000002663 Rises=F Damp=F
 DIIS: error= 3.87D-07 at cycle  29 NSaved=  20.
 NSaved=20 IEnMin=20 EnMin= -5263.29069545469     IErMin=20 ErrMin= 3.87D-07
 ErrMax= 3.87D-07  0.00D+00 EMaxC= 1.00D-01 BMatC= 1.27D-09 BMatP= 7.19D-09
 IDIUse=1 WtCom= 1.00D+00 WtEn= 0.00D+00
 Coeff-Com: -0.382D-05-0.438D-04-0.978D-05 0.259D-03 0.149D-03 0.142D-02
 Coeff-Com:  0.552D-02 0.366D-02 0.850D-02-0.672D-02-0.422D-01-0.180D-01
 Coeff-Com:  0.399D-01 0.102D+00-0.761D-01-0.885D-01-0.110D+00-0.120D+00
 Coeff-Com:  0.580D+00 0.720D+00
 Coeff:     -0.382D-05-0.438D-04-0.978D-05 0.259D-03 0.149D-03 0.142D-02
 Coeff:      0.552D-02 0.366D-02 0.850D-02-0.672D-02-0.422D-01-0.180D-01
 Coeff:      0.399D-01 0.102D+00-0.761D-01-0.885D-01-0.110D+00-0.120D+00
 Coeff:      0.580D+00 0.720D+00
 Gap=     0.160 Goal=   None    Shift=    0.000
 Gap=     0.016 Goal=   None    Shift=    0.000
 RMSDP=1.44D-07 MaxDP=1.77D-05 DE=-2.66D-09 OVMax= 2.12D-04

 Cycle  30  Pass 1  IDiag  1:
 RMSU=  2.49D-08    CP:  1.00D+00  3.00D+00  3.00D+00  2.80D+00  1.56D+00
                    CP:  1.85D+00  2.31D+00  2.08D+00  1.77D+00
 E= -5263.29069545597     Delta-E=       -0.000000001284 Rises=F Damp=F
 DIIS: error= 2.91D-07 at cycle  30 NSaved=  20.
 NSaved=20 IEnMin=20 EnMin= -5263.29069545597     IErMin=20 ErrMin= 2.91D-07
 ErrMax= 2.91D-07  0.00D+00 EMaxC= 1.00D-01 BMatC= 6.55D-10 BMatP= 1.27D-09
 IDIUse=1 WtCom= 1.00D+00 WtEn= 0.00D+00
 Coeff-Com: -0.119D-04-0.395D-04 0.830D-04 0.443D-03 0.130D-02 0.208D-02
 Coeff-Com: -0.326D-02-0.391D-02 0.407D-02-0.156D-02 0.180D-01 0.104D-01
 Coeff-Com:  0.109D-01-0.454D-01-0.326D-01-0.509D-01-0.196D+00 0.300D-02
 Coeff-Com:  0.490D+00 0.794D+00
 Coeff:     -0.119D-04-0.395D-04 0.830D-04 0.443D-03 0.130D-02 0.208D-02
 Coeff:     -0.326D-02-0.391D-02 0.407D-02-0.156D-02 0.180D-01 0.104D-01
 Coeff:      0.109D-01-0.454D-01-0.326D-01-0.509D-01-0.196D+00 0.300D-02
 Coeff:      0.490D+00 0.794D+00
 Gap=     0.160 Goal=   None    Shift=    0.000
 Gap=     0.016 Goal=   None    Shift=    0.000
 RMSDP=1.30D-07 MaxDP=1.64D-05 DE=-1.28D-09 OVMax= 1.91D-04

 Cycle  31  Pass 1  IDiag  1:
 RMSU=  1.87D-08    CP:  1.00D+00  3.00D+00  3.00D+00  2.80D+00  1.58D+00
                    CP:  1.96D+00  2.73D+00  2.62D+00  2.50D+00  1.46D+00
 E= -5263.29069545667     Delta-E=       -0.000000000702 Rises=F Damp=F
 DIIS: error= 3.49D-07 at cycle  31 NSaved=  20.
 NSaved=20 IEnMin=20 EnMin= -5263.29069545667     IErMin=19 ErrMin= 2.91D-07
 ErrMax= 3.49D-07  0.00D+00 EMaxC= 1.00D-01 BMatC= 6.30D-10 BMatP= 6.55D-10
 IDIUse=1 WtCom= 1.00D+00 WtEn= 0.00D+00
 Coeff-Com:  0.169D-04-0.445D-04 0.160D-03-0.209D-04-0.140D-02-0.419D-02
 Coeff-Com: -0.725D-02 0.659D-02 0.226D-01 0.258D-01-0.144D-01-0.473D-01
 Coeff-Com: -0.262D-02 0.169D-01 0.267D-01-0.894D-01-0.306D+00 0.567D-01
 Coeff-Com:  0.664D+00 0.653D+00
 Coeff:      0.169D-04-0.445D-04 0.160D-03-0.209D-04-0.140D-02-0.419D-02
 Coeff:     -0.725D-02 0.659D-02 0.226D-01 0.258D-01-0.144D-01-0.473D-01
[...]
     9  O   -0.243971   0.087776  -0.342498
    10  O   -0.230740   0.099240  -0.334514
    11  O   -0.232235   0.100352  -0.336430
    12  C    0.232930   0.015932   0.317542
    14  O   -0.231920   0.095336  -0.334721
    15  O   -0.242400   0.082741  -0.345072
    16  C    0.222635   0.013066   0.307839
    18  Fe   0.482715   4.028816   0.825098
    19  O   -0.243993   0.086939  -0.342470
    20  Fe   0.544260   4.040767   0.874380
    21  O   -0.232138   0.094637  -0.335443
    22  O   -0.232735   0.094451  -0.335749
    23  Fe   0.493621   4.045902   0.825300
    24  O   -0.344781   0.581485  -0.578351
    25  C    0.230328   0.017185   0.315319
    27  C    0.230192   0.017447   0.315147
    29  N    0.243158   0.002002   0.183057
    30  N   -0.046554   0.011394  -0.051093
    31  O   -0.072799   0.019105  -0.039993
    32  O    0.155247   0.060075   0.137225
 
 EQQ=  12.7805057693     EQD=-0.308045119152     EDD= 0.130755342120E-02
 EQQ+QD+DD=  12.4737682036    
 
                          Isotropic Fermi Contact Couplings
        Atom                 a.u.       MegaHertz       Gauss      10(-4) cm-1
     1  O(17)              0.10976      -4.75243      -1.69578      -1.58524
     2  O(17)              0.10544      -4.56563      -1.62913      -1.52293
     3  C(13)             -0.00299      -0.24023      -0.08572      -0.08013
     4  H(1)               0.00787       2.51181       0.89628       0.83785
     5  O(17)              0.09591      -4.15275      -1.48180      -1.38521
     6  O(17)              0.09616      -4.16378      -1.48574      -1.38889
     7  C(13)             -0.00387      -0.31059      -0.11082      -0.10360
     8  H(1)               0.00721       2.30198       0.82140       0.76786
     9  O(17)              0.09691      -4.19613      -1.49728      -1.39968
    10  O(17)              0.10639      -4.60648      -1.64371      -1.53656
    11  O(17)              0.10009      -4.33369      -1.54637      -1.44556
    12  C(13)             -0.00277      -0.22269      -0.07946      -0.07428
    13  H(1)               0.00760       2.42800       0.86637       0.80989
    14  O(17)              0.10148      -4.39384      -1.56783      -1.46563
    15  O(17)              0.10013      -4.33543      -1.54699      -1.44615
    16  C(13)             -0.00413      -0.33133      -0.11823      -0.11052
    17  H(1)               0.00744       2.37590       0.84778       0.79252
    18  Fe(57)             0.60514       6.26924       2.23702       2.09119
    19  O(17)              0.09645      -4.17610      -1.49014      -1.39300
    20  Fe(57)             0.65844       6.82143       2.43406       2.27538
    21  O(17)              0.09539      -4.13024      -1.47377      -1.37770
    22  O(17)              0.09563      -4.14073      -1.47751      -1.38120
    23  Fe(57)             0.58326       6.04261       2.15615       2.01560
    24  O(17)              0.43724     -18.93237      -6.75554      -6.31516
    25  C(13)             -0.00328      -0.26344      -0.09400      -0.08787
    26  H(1)               0.00711       2.26889       0.80960       0.75682
    27  C(13)             -0.00444      -0.35642      -0.12718      -0.11889
    28  H(1)               0.00718       2.29150       0.81766       0.76436
    29  N(14)              0.00044       0.01014       0.00362       0.00338
    30  N(14)              0.00307       0.07079       0.02526       0.02361
    31  O(17)              0.04204      -1.82031      -0.64953      -0.60719
    32  O(17)              0.05174      -2.24046      -0.79945      -0.74734
    33  H(1)              -0.00017      -0.05340      -0.01906      -0.01781
    34  H(1)              -0.00010      -0.03199      -0.01141      -0.01067
 --------------------------------------------------------
       Center         ----  Spin Dipole Couplings  ----
                      3XX-RR        3YY-RR        3ZZ-RR
 --------------------------------------------------------
     1   Atom       -0.180167      0.081711      0.098456
     2   Atom       -0.135582      0.050580      0.085003
     3   Atom        0.035414     -0.015844     -0.019570
     4   Atom       -0.008576      0.003886      0.004690
     5   Atom        0.053972     -0.142558      0.088587
     6   Atom        0.080511     -0.149376      0.068865
     7   Atom        0.000280      0.018746     -0.019026
     8   Atom        0.007497     -0.011092      0.003596
     9   Atom       -0.015696     -0.044074      0.059770
    10   Atom        0.083644     -0.168684      0.085040
    11   Atom        0.059816     -0.124299      0.064483
    12   Atom       -0.008100      0.031826     -0.023726
    13   Atom        0.005982     -0.008625      0.002643
    14   Atom       -0.146457      0.059762      0.086694
    15   Atom       -0.158062      0.087201      0.070861
    16   Atom        0.023516     -0.003061     -0.020455
    17   Atom       -0.010541      0.007030      0.003512
    18   Atom        0.846385     -0.366763     -0.479623
    19   Atom       -0.021083     -0.057310      0.078393
    20   Atom       -0.344844      0.757617     -0.412773
    21   Atom       -0.081544     -0.001308      0.082852
    22   Atom       -0.077596      0.016055      0.061542
    23   Atom        0.471824      0.190114     -0.661938
    24   Atom        0.013099      0.026642     -0.039741
    25   Atom        0.011766      0.007194     -0.018959
    26   Atom       -0.001762     -0.002319      0.004080
    27   Atom        0.013701      0.012344     -0.026046
    28   Atom       -0.001200     -0.000023      0.001223
    29   Atom        0.048959     -0.016802     -0.032157
    30   Atom        0.029687     -0.003941     -0.025747
    31   Atom        0.121455     -0.058124     -0.063331
    32   Atom        0.077430      0.062246     -0.139676
    33   Atom        0.049833     -0.018786     -0.031048
    34   Atom       -0.016872      0.049175     -0.032302
 --------------------------------------------------------
                        XY            XZ            YZ
 --------------------------------------------------------
     1   Atom       -0.050866     -0.056435      0.235766
     2   Atom       -0.108000     -0.099036      0.212005
     3   Atom        0.009661     -0.019950      0.082672
     4   Atom       -0.005685     -0.009415      0.030688
     5   Atom       -0.102819     -0.234119      0.087321
     6   Atom       -0.062562     -0.213702      0.051976
     7   Atom        0.014107     -0.072365      0.021147
     8   Atom       -0.003539     -0.030169      0.007721
     9   Atom        0.139757     -0.169836     -0.158518
    10   Atom       -0.058358      0.233092     -0.064952
    11   Atom       -0.119083      0.210734     -0.109639
    12   Atom        0.003754      0.078355     -0.015978
    13   Atom       -0.007057      0.030620     -0.009545
    14   Atom       -0.098220      0.082384     -0.231109
    15   Atom       -0.062186      0.050389     -0.218338
    16   Atom        0.015206      0.022165     -0.075711
    17   Atom       -0.003545      0.007770     -0.030163
    18   Atom        0.018949      0.048899      0.008513
    19   Atom        0.128893      0.173764      0.154249
    20   Atom       -0.133410     -0.008353      0.130291
    21   Atom        0.132663      0.149660      0.194794
    22   Atom        0.141204     -0.144178     -0.196279
    23   Atom        0.464072      0.212241      0.175505
    24   Atom       -0.016959     -0.010229     -0.009383
    25   Atom       -0.014532      0.052688      0.053192
    26   Atom        0.009909      0.022447      0.022592
    27   Atom       -0.010773     -0.051825     -0.051650
    28   Atom        0.011518     -0.021952     -0.022673
    29   Atom        0.009821      0.001681      0.000672
    30   Atom       -0.012668      0.000335      0.000652
    31   Atom       -0.046694      0.001754     -0.000738
    32   Atom        0.232570     -0.039640     -0.039002
    33   Atom        0.046884     -0.047362     -0.015136
    34   Atom        0.047634     -0.015371     -0.045474
 --------------------------------------------------------


 ---------------------------------------------------------------------------------
              Anisotropic Spin Dipole Couplings in Principal Axis System
 ---------------------------------------------------------------------------------

       Atom             a.u.   MegaHertz   Gauss  10(-4) cm-1        Axes

              Baa    -0.1915    13.854     4.943     4.621  0.9878  0.0603  0.1433
     1 O(17)  Bbb    -0.1457    10.542     3.762     3.516  0.0554  0.7246 -0.6869
              Bcc     0.3371   -24.396    -8.705    -8.137 -0.1452  0.6865  0.7125
 
              Baa    -0.1851    13.395     4.780     4.468  0.9162  0.4002  0.0218
     2 O(17)  Bbb    -0.1415    10.242     3.654     3.416  0.2641 -0.6439  0.7181
              Bcc     0.3267   -23.636    -8.434    -7.884 -0.3014  0.6521  0.6956
 
              Baa    -0.1036   -13.900    -4.960    -4.637  0.1498 -0.6867  0.7113
     3 C(13)  Bbb     0.0369     4.948     1.765     1.650  0.9595  0.2745  0.0629
              Bcc     0.0667     8.952     3.194     2.986 -0.2384  0.6731  0.7001
 
              Baa    -0.0268   -14.302    -5.103    -4.771  0.1548 -0.6841  0.7128
     4 H(1)   Bbb    -0.0107    -5.689    -2.030    -1.898  0.9616  0.2699  0.0502
              Bcc     0.0375    19.991     7.133     6.668 -0.2267  0.6777  0.6996
 
              Baa    -0.1888    13.662     4.875     4.557  0.5319  0.8254  0.1891
     5 O(17)  Bbb    -0.1542    11.159     3.982     3.722  0.5279 -0.4978  0.6881
              Bcc     0.3430   -24.821    -8.857    -8.279 -0.6621  0.2662  0.7006
 
              Baa    -0.1654    11.969     4.271     3.992  0.2845  0.9575  0.0471
     6 O(17)  Bbb    -0.1376     9.956     3.553     3.321  0.6472 -0.2281  0.7274
              Bcc     0.3030   -21.925    -7.824    -7.314  0.7072 -0.1765 -0.6846
 
              Baa    -0.0883   -11.851    -4.229    -3.953  0.6374 -0.2293  0.7356
     7 C(13)  Bbb     0.0244     3.276     1.169     1.093  0.2125  0.9700  0.1182
              Bcc     0.0639     8.575     3.060     2.860  0.7407 -0.0810 -0.6670
 
              Baa    -0.0255   -13.584    -4.847    -4.531  0.6428 -0.2337  0.7295
     8 H(1)   Bbb    -0.0116    -6.193    -2.210    -2.066  0.2771  0.9588  0.0630
              Bcc     0.0371    19.777     7.057     6.597  0.7142 -0.1617 -0.6810
 
              Baa    -0.1707    12.353     4.408     4.121 -0.6063  0.7894  0.0961
     9 O(17)  Bbb    -0.1481    10.720     3.825     3.576  0.5753  0.3520  0.7383
              Bcc     0.3189   -23.073    -8.233    -7.696 -0.5490 -0.5030  0.6676
 
              Baa    -0.1844    13.344     4.761     4.451  0.0320  0.9776  0.2080
    10 O(17)  Bbb    -0.1482    10.723     3.826     3.577  0.7188  0.1221 -0.6844
              Bcc     0.3326   -24.067    -8.588    -8.028  0.6945 -0.1714  0.6988
 
              Baa    -0.1833    13.261     4.732     4.423  0.3735  0.9232  0.0909
    11 O(17)  Bbb    -0.1471    10.647     3.799     3.551 -0.6454  0.1883  0.7403
              Bcc     0.3304   -23.908    -8.531    -7.975  0.6663 -0.3351  0.6662
 
              Baa    -0.0963   -12.919    -4.610    -4.309 -0.6628  0.1118  0.7404
    12 C(13)  Bbb     0.0315     4.221     1.506     1.408  0.2544  0.9636  0.0823
              Bcc     0.0648     8.698     3.104     2.901  0.7043 -0.2429  0.6671
 
              Baa    -0.0266   -14.207    -5.069    -4.739 -0.6635  0.1305  0.7367
    13 H(1)   Bbb    -0.0113    -6.024    -2.150    -2.009  0.2674  0.9610  0.0706
              Bcc     0.0379    20.231     7.219     6.748  0.6987 -0.2439  0.6725
 
              Baa    -0.1871    13.540     4.831     4.516  0.8658  0.4792  0.1440
    14 O(17)  Bbb    -0.1511    10.933     3.901     3.647 -0.4310  0.5679  0.7013
              Bcc     0.3382   -24.473    -8.732    -8.163  0.2543 -0.6692  0.6982
 
              Baa    -0.1730    12.517     4.466     4.175  0.9665  0.2550  0.0286
    15 O(17)  Bbb    -0.1381     9.993     3.566     3.333 -0.1944  0.6545  0.7307
              Bcc     0.3111   -22.509    -8.032    -7.508 -0.1676  0.7118 -0.6821
 
              Baa    -0.0940   -12.617    -4.502    -4.208 -0.2214  0.6455  0.7310
    16 C(13)  Bbb     0.0293     3.925     1.401     1.309  0.9708  0.2170  0.1024
              Bcc     0.0648     8.691     3.101     2.899 -0.0926  0.7323 -0.6747
 
              Baa    -0.0257   -13.701    -4.889    -4.570 -0.2223  0.6478  0.7286
    17 H(1)   Bbb    -0.0111    -5.940    -2.120    -1.981  0.9609  0.2723  0.0511
              Bcc     0.0368    19.641     7.008     6.551 -0.1653  0.7114 -0.6830
 
              Baa    -0.4820    -8.344    -2.977    -2.783 -0.0357 -0.0678  0.9971
    18 Fe(57) Bbb    -0.3665    -6.346    -2.264    -2.117 -0.0183  0.9976  0.0672
              Bcc     0.8485    14.690     5.242     4.900  0.9992  0.0158  0.0369
 
              Baa    -0.1695    12.265     4.376     4.091 -0.6142  0.7870 -0.0592
    19 O(17)  Bbb    -0.1476    10.681     3.811     3.563 -0.5769 -0.3965  0.7142
              Bcc     0.3171   -22.946    -8.188    -7.654  0.5385  0.4727  0.6975
 
              Baa    -0.4277    -7.404    -2.642    -2.470 -0.0920 -0.1190  0.9886
    20 Fe(57) Bbb    -0.3600    -6.233    -2.224    -2.079  0.9889  0.1058  0.1048
              Bcc     0.7877    13.637     4.866     4.549 -0.1171  0.9872  0.1080
 
              Baa    -0.1804    13.052     4.657     4.354  0.8438 -0.5294 -0.0879
    21 O(17)  Bbb    -0.1554    11.242     4.011     3.750 -0.3185 -0.6259  0.7119
              Bcc     0.3357   -24.294    -8.669    -8.104  0.4320  0.5727  0.6967
 
              Baa    -0.1796    12.998     4.638     4.336  0.8322 -0.5525  0.0478
    22 O(17)  Bbb    -0.1553    11.238     4.010     3.748  0.3386  0.5745  0.7452
              Bcc     0.3349   -24.236    -8.648    -8.084 -0.4392 -0.6039  0.6652
 
              Baa    -0.7118   -12.324    -4.397    -4.111 -0.1270 -0.1261  0.9839
    23 Fe(57) Bbb    -0.1536    -2.660    -0.949    -0.887 -0.6011  0.7988  0.0248
              Bcc     0.8655    14.984     5.347     4.998  0.7890  0.5882  0.1772
 
              Baa    -0.0439     3.179     1.134     1.060  0.2256  0.1815  0.9572
    24 O(17)  Bbb     0.0057    -0.416    -0.148    -0.139  0.8028  0.5220 -0.2882
              Bcc     0.0382    -2.763    -0.986    -0.922 -0.5520  0.8334 -0.0279
 
              Baa    -0.0872   -11.705    -4.177    -3.904 -0.4649 -0.4878  0.7389
    25 C(13)  Bbb     0.0240     3.219     1.149     1.074 -0.6949  0.7181  0.0369
              Bcc     0.0632     8.486     3.028     2.831  0.5486  0.4963  0.6728
 
              Baa    -0.0259   -13.837    -4.938    -4.616 -0.4714 -0.4983  0.7276
    26 H(1)   Bbb    -0.0119    -6.373    -2.274    -2.126  0.7148 -0.6991 -0.0156
              Bcc     0.0379    20.210     7.211     6.741  0.5165  0.5128  0.6858
 
              Baa    -0.0864   -11.597    -4.138    -3.868  0.4479  0.4522  0.7713
    27 C(13)  Bbb     0.0238     3.192     1.139     1.065 -0.6999  0.7141 -0.0122
              Bcc     0.0626     8.405     2.999     2.804 -0.5563 -0.5344  0.6364
 
              Baa    -0.0259   -13.797    -4.923    -4.602  0.4603  0.4607  0.7588
    28 H(1)   Bbb    -0.0121    -6.478    -2.312    -2.161  0.7155 -0.6986 -0.0099
              Bcc     0.0380    20.275     7.235     6.763 -0.5255 -0.5475  0.6512
 
              Baa    -0.0322    -1.242    -0.443    -0.414 -0.0167 -0.0329  0.9993
    29 N(14)  Bbb    -0.0182    -0.703    -0.251    -0.234 -0.1453  0.9889  0.0301
              Bcc     0.0504     1.945     0.694     0.649  0.9892  0.1447  0.0213
 
              Baa    -0.0258    -0.994    -0.355    -0.332 -0.0148 -0.0384  0.9992
    30 N(14)  Bbb    -0.0081    -0.314    -0.112    -0.105  0.3169  0.9476  0.0412
              Bcc     0.0339     1.308     0.467     0.436  0.9483 -0.3172  0.0019
 
              Baa    -0.0696     5.033     1.796     1.679  0.2368  0.9704  0.0484
    31 O(17)  Bbb    -0.0633     4.583     1.635     1.529 -0.0208 -0.0447  0.9988
              Bcc     0.1329    -9.616    -3.431    -3.207  0.9713 -0.2375  0.0096
 
              Baa    -0.1629    11.785     4.205     3.931 -0.6928  0.7206  0.0275
    32 O(17)  Bbb    -0.1465    10.604     3.784     3.537  0.1076  0.0655  0.9920
              Bcc     0.3094   -22.389    -7.989    -7.468  0.7130  0.6903 -0.1229
 
              Baa    -0.0549   -29.291   -10.452    -9.770  0.5058 -0.3211  0.8006
    33 H(1)   Bbb    -0.0382   -20.383    -7.273    -6.799 -0.2028  0.8578  0.4722
              Bcc     0.0931    49.674    17.725    16.569  0.8385  0.4012 -0.3688
 
              Baa    -0.0543   -28.966   -10.336    -9.662 -0.2939  0.4948  0.8178
    34 H(1)   Bbb    -0.0379   -20.242    -7.223    -6.752  0.8608 -0.2350  0.4515
              Bcc     0.0922    49.208    17.559    16.414  0.4156  0.8367 -0.3568
 

 ---------------------------------------------------------------------------------

 No NMR shielding tensors so no spin-rotation constants.
 Leave Link  601 at Sun Jan 29 06:14:56 2023, MaxMem= 14763950080 cpu:              21.5 elap:              11.1
 (Enter /software/commercial/gaussian/g16/AVX2/g16/l9999.exe)
 Unable to Open any file for archive entry.
 1\1\GINC-NODE2010\FOpt\UM06L\Gen\C6H8Fe3N2O15(15)\SVICCHI\29-Jan-2023\
 0\\#p opt=(cartesian,maxcycle=500) gen um06l int=grid=ultrafine scf=(x
 qc,intrep,maxconventionalcycle=150) pop=(hirshfeld) nosymm\\FeFeFe-AO-
 1xH2O\\0,15\O,0.8756590445,2.5269723945,1.6320001324\O,-1.2949629124,1
 .9309390492,1.51316548\C,-0.327965686,2.5800472602,1.976165073\H,-0.56
 6665739,3.2854001211,2.7906398141\O,2.3563511946,-1.6414584416,-1.4061
 792555\O,3.0263181714,0.5046369343,-1.2559514117\C,3.0621591751,-0.657
 6598952,-1.7251872326\H,3.8053831685,-0.8397380692,-2.5215457233\O,-2.
 0027016283,-0.8799875956,1.4402344047\O,2.9498642394,0.44077146,1.6044
 159461\O,2.3703550725,-1.7302778071,1.4240311798\C,3.0257379702,-0.773
 2574766,1.901581949\H,3.7583213753,-1.0361070959,2.6837957563\O,-1.237
 7905905,1.9720103954,-1.3521342905\O,0.915517538,2.6277860607,-1.23600
 80511\C,-0.2526638462,2.6638718736,-1.6928546185\H,-0.4363019518,3.397
 3698407,-2.4980442051\Fe,-1.384584735,0.5217704215,0.0629759342\O,-1.9
 847608549,-0.8184583728,-1.3818739577\Fe,0.9162300163,-1.7259179028,0.
 019705592\O,-0.3633965462,-2.383321685,-1.4109203439\O,-0.3786783412,-
 2.4432879971,1.4104853442\Fe,1.8291056836,1.4271344833,0.2253978582\O,
 0.4606684484,0.0835306094,0.0807669081\C,-1.4429595456,-1.8727538712,-
 1.789502267\H,-1.9809005179,-2.4184984072,-2.5838235201\C,-1.462209175
 7,-1.9513422698,1.8029885655\H,-2.0059804031,-2.5337491693,2.566792466
 4\N,-4.4480794031,0.0197873044,-0.0006611536\N,-5.1354380846,-0.866262
 6841,-0.0409321248\O,-3.737222699,0.965290325,0.041879832\O,3.36472541
 11,2.9251293698,-0.1317684596\H,3.9246297601,2.4144436366,-0.735811058
 2\H,2.8668903916,3.5219752008,-0.7095155629\\Version=ES64L-G16RevC.02\
 HF=-5263.2906971\S2=56.065547\S2-1=0.\S2A=56.000319\RMSD=5.300e-09\RMS
 F=2.571e-05\Dipole=0.1458771,0.7009693,-0.549353\Quadrupole=4.0008611,
 -2.4264968,-1.5743643,3.1078217,-4.6047526,-4.2786509\PG=C01 [X(C6H8Fe
 3N2O15)]\\@
 The archive entry for this job was punched.


 THE TEST OF A FIRST RATE INTELLIGENCE IS THE ABILITY TO HOLD TWO OPPOSED
 IDEAS IN THE MIND AT THE SAME TIME, AND STILL RETAIN THE ABILITY TO FUNCTION.
 ONE SHOULD, FOR EXAMPLE, BE ABLE TO SEE THAT THINGS ARE HOPELESS AND YET BE
 DETERMINED TO MAKE THEM OTHERWISE.

                                                       -- F. SCOTT FITZGERALD
 Job cpu time:       1 days 14 hours 28 minutes  8.7 seconds.
 Elapsed time:       0 days 19 hours 22 minutes 17.0 seconds.
 File lengths (MBytes):  RWF=    799 Int=      0 D2E=      0 Chk=     76 Scr=      1
 Normal termination of Gaussian 16 at Sun Jan 29 06:14:57 2023.
