 Entering Gaussian System, Link 0=g16
 Input=FeFeFe-AO-1xH2O-opt.gjf
 Output=FeFeFe-AO-1xH2O-opt.log
 AtFile(1): /zfs/curium/svicchi/00-MOF/01-Gaussian/zw-basis-set/def2-TZVP/H.gbs
            !----------------------------------------------------------------------
            ! Basis Set Exchange
            ! Version v0.9
            ! https://www.basissetexchange.org
            !----------------------------------------------------------------------
            !   Basis set: def2-TZVP
            ! Description: def2-TZVP
            !        Role: orbital
            !     Version: 1  (Data from Turbomole 7.3)
            !----------------------------------------------------------------------
            H     0
            S    3   1.00
                 34.0613410              0.60251978D-02
                  5.1235746              0.45021094D-01
                  1.1646626              0.20189726
            S    1   1.00
                  0.32723041             1.0000000
            S    1   1.00
                  0.10307241             1.0000000
            P    1   1.00
                  0.8000000              1.0000000
 AtFile(1): /zfs/curium/svicchi/00-MOF/01-Gaussian/zw-basis-set/def2-TZVP/O.gbs
            !----------------------------------------------------------------------
            ! Basis Set Exchange
            ! Version v0.9
            ! https://www.basissetexchange.org
            !----------------------------------------------------------------------
            !   Basis set: def2-TZVP
            ! Description: def2-TZVP
            !        Role: orbital
            !     Version: 1  (Data from Turbomole 7.3)
            !----------------------------------------------------------------------
            O     0
            S    6   1.00
              27032.3826310              0.21726302465D-03
               4052.3871392              0.16838662199D-02
                922.32722710             0.87395616265D-02
                261.24070989             0.35239968808D-01
                 85.354641351            0.11153519115
                 31.035035245            0.25588953961
            S    2   1.00
                 12.260860728            0.39768730901
                  4.9987076005           0.24627849430
            S    1   1.00
                  1.1703108158           1.0000000
            S    1   1.00
                  0.46474740994          1.0000000
            S    1   1.00
                  0.18504536357          1.0000000
            P    4   1.00
                 63.274954801            0.60685103418D-02
                 14.627049379            0.41912575824D-01
                  4.4501223456           0.16153841088
                  1.5275799647           0.35706951311
            P    1   1.00
                  0.52935117943           .44794207502
            P    1   1.00
                  0.17478421270           .24446069663
            D    1   1.00
                  2.31400000             1.0000000
            D    1   1.00
                  0.64500000             1.0000000
            F    1   1.00
                  1.42800000             1.0000000
 AtFile(1): /zfs/curium/svicchi/00-MOF/01-Gaussian/zw-basis-set/def2-TZVP/C.gbs
            !----------------------------------------------------------------------
            ! Basis Set Exchange
            ! Version v0.9
            ! https://www.basissetexchange.org
            !----------------------------------------------------------------------
            !   Basis set: def2-TZVP
            ! Description: def2-TZVP
            !        Role: orbital
            !     Version: 1  (Data from Turbomole 7.3)
            !----------------------------------------------------------------------
            C     0
            S    6   1.00
              13575.3496820              0.22245814352D-03
               2035.2333680              0.17232738252D-02
                463.22562359             0.89255715314D-02
                131.20019598             0.35727984502D-01
                 42.853015891            0.11076259931
                 15.584185766            0.24295627626
            S    2   1.00
                  6.2067138508           0.41440263448
                  2.5764896527           0.23744968655
            S    1   1.00
                  0.57696339419          1.0000000
            S    1   1.00
                  0.22972831358          1.0000000
            S    1   1.00
                  0.95164440028D-01      1.0000000
            P    4   1.00
                 34.697232244            0.53333657805D-02
                  7.9582622826           0.35864109092D-01
                  2.3780826883           0.14215873329
                  0.81433208183          0.34270471845
            P    1   1.00
                  0.28887547253           .46445822433
            P    1   1.00
                  0.10056823671           .24955789874
            D    1   1.00
                  1.09700000             1.0000000
            D    1   1.00
                  0.31800000             1.0000000
            F    1   1.00
                  0.76100000             1.0000000
 AtFile(1): /zfs/curium/svicchi/00-MOF/01-Gaussian/zw-basis-set/def2-TZVP/Fe.gbs
            !----------------------------------------------------------------------
            ! Basis Set Exchange
            ! Version v0.9
            ! https://www.basissetexchange.org
            !----------------------------------------------------------------------
            !   Basis set: def2-TZVP
            ! Description: def2-TZVP
            !        Role: orbital
            !     Version: 1  (Data from Turbomole 7.3)
            !----------------------------------------------------------------------
            Fe     0
            S    8   1.00
             300784.8463700              0.22806273096D-03
              45088.9705570              0.17681788761D-02
              10262.5163170              0.91927083490D-02
               2905.2897293              0.37355495807D-01
                946.11487137             0.12151108426
                339.87832894             0.28818881468
                131.94425588             0.41126612677
                 52.111494077            0.21518583573
            S    4   1.00
                329.48839267            -0.24745216477D-01
                101.92332739            -0.11683089050
                 16.240462745            0.55293621136
                  6.8840675801           0.53601640182
            S    2   1.00
                 10.470693782           -0.22912708577
                  1.7360039648           0.71159319984
            S    1   1.00
                  0.72577288979          1.0000000
            S    1   1.00
                  0.11595528203          1.0000000
            S    1   1.00
                  0.41968227746D-01      1.0000000
            P    6   1.00
               1585.3959970              0.23793960179D-02
                375.38006499             0.19253154755D-01
                120.31816501             0.90021836536D-01
                 44.788749031            0.25798172356
                 17.829278584            0.41492649744
                  7.2247153786           0.24207474784
            P    3   1.00
                 28.143219756           -0.29041755152D-01
                  3.8743241412           0.55312260343
                  1.5410752281           0.96771136842
            P    1   1.00
                  0.58285615250          1.0000000
            P    1   1.00
                  0.1349150              1.0000000
            D    4   1.00
                 61.996675034            0.11971972255D-01
                 17.873732552            0.73210135410D-01
                  6.2744782934           0.23103094314
                  2.3552337175           0.39910706494
            D    1   1.00
                  0.85432239901           .41391589765
            D    1   1.00
                  0.27869254413           .21909269782
            D    1   1.00
                  0.0910000              1.0000000
            F    1   1.00
                  1.5980000              1.0000000
 AtFile(1): /zfs/curium/svicchi/00-MOF/01-Gaussian/zw-basis-set/def2-TZVP/N.gbs
            !----------------------------------------------------------------------
            ! Basis Set Exchange
            ! Version v0.9
            ! https://www.basissetexchange.org
            !----------------------------------------------------------------------
            !   Basis set: def2-TZVP
            ! Description: def2-TZVP
            !        Role: orbital
            !     Version: 1  (Data from Turbomole 7.3)
            !----------------------------------------------------------------------
            N     0
            S    6   1.00
              19730.8006470              0.21887984991D-03
               2957.8958745              0.16960708803D-02
                673.22133595             0.87954603538D-02
                190.68249494             0.35359382605D-01
                 62.295441898            0.11095789217
                 22.654161182            0.24982972552
            S    2   1.00
                  8.9791477428           0.40623896148
                  3.6863002370           0.24338217176
            S    1   1.00
                  0.84660076805          1.0000000
            S    1   1.00
                  0.33647133771          1.0000000
            S    1   1.00
                  0.13647653675          1.0000000
            P    4   1.00
                 49.200380510            0.55552416751D-02
                 11.346790537            0.38052379723D-01
                  3.4273972411           0.14953671029
                  1.1785525134           0.34949305230
            P    1   1.00
                  0.41642204972           .45843153697
            P    1   1.00
                  0.14260826011           .24428771672
            D    1   1.00
                  1.65400000             1.0000000
            D    1   1.00
                  0.46900000             1.0000000
            F    1   1.00
                  1.09300000             1.0000000
 Initial command:
 /software/commercial/gaussian/g16/AVX2/g16/l1.exe "/scratch1/svicchi/G09-81761.pbs02/Gau-1519165.inp" -scrdir="/scratch1/svicchi/G09-81761.pbs02/"
 Entering Link 1 = /software/commercial/gaussian/g16/AVX2/g16/l1.exe PID=   1519166.
  
 Copyright (c) 1988-2021, Gaussian, Inc.  All Rights Reserved.
  
 This is part of the Gaussian(R) 16 program.  It is based on
 the Gaussian(R) 09 system (copyright 2009, Gaussian, Inc.),
 the Gaussian(R) 03 system (copyright 2003, Gaussian, Inc.),
 the Gaussian(R) 98 system (copyright 1998, Gaussian, Inc.),
 the Gaussian(R) 94 system (copyright 1995, Gaussian, Inc.),
 the Gaussian 92(TM) system (copyright 1992, Gaussian, Inc.),
 the Gaussian 90(TM) system (copyright 1990, Gaussian, Inc.),
 the Gaussian 88(TM) system (copyright 1988, Gaussian, Inc.),
 the Gaussian 86(TM) system (copyright 1986, Carnegie Mellon
 University), and the Gaussian 82(TM) system (copyright 1983,
 Carnegie Mellon University). Gaussian is a federally registered
 trademark of Gaussian, Inc.
  
 This software contains proprietary and confidential information,
 including trade secrets, belonging to Gaussian, Inc.
  
 This software is provided under written license and may be
 used, copied, transmitted, or stored only in accord with that
 written license.
  
 The following legend is applicable only to US Government
 contracts under FAR:
  
                    RESTRICTED RIGHTS LEGEND
  
 Use, reproduction and disclosure by the US Government is
 subject to restrictions as set forth in subparagraphs (a)
 and (c) of the Commercial Computer Software - Restricted
 Rights clause in FAR 52.227-19.
  
 Gaussian, Inc.
 340 Quinnipiac St., Bldg. 40, Wallingford CT 06492
  
  
 ---------------------------------------------------------------
 Warning -- This program may not be used in any manner that
 competes with the business of Gaussian, Inc. or will provide
 assistance to any competitor of Gaussian, Inc.  The licensee
 of this program is prohibited from giving any competitor of
 Gaussian, Inc. access to this program.  By using this program,
 the user acknowledges that Gaussian, Inc. is engaged in the
 business of creating and licensing software in the field of
 computational chemistry and represents and warrants to the
 licensee that it is not a competitor of Gaussian, Inc. and that
 it will not use this program in any manner prohibited above.
 ---------------------------------------------------------------
  

 Cite this work as:
 Gaussian 16, Revision C.02,
 M. J. Frisch, G. W. Trucks, H. B. Schlegel, G. E. Scuseria, 
 M. A. Robb, J. R. Cheeseman, G. Scalmani, V. Barone, 
 G. A. Petersson, H. Nakatsuji, X. Li, M. Caricato, A. V. Marenich, 
 J. Bloino, B. G. Janesko, R. Gomperts, B. Mennucci, H. P. Hratchian, 
 J. V. Ortiz, A. F. Izmaylov, J. L. Sonnenberg, D. Williams-Young, 
 F. Ding, F. Lipparini, F. Egidi, J. Goings, B. Peng, A. Petrone, 
 T. Henderson, D. Ranasinghe, V. G. Zakrzewski, J. Gao, N. Rega, 
 G. Zheng, W. Liang, M. Hada, M. Ehara, K. Toyota, R. Fukuda, 
 J. Hasegawa, M. Ishida, T. Nakajima, Y. Honda, O. Kitao, H. Nakai, 
 T. Vreven, K. Throssell, J. A. Montgomery, Jr., J. E. Peralta, 
 F. Ogliaro, M. J. Bearpark, J. J. Heyd, E. N. Brothers, K. N. Kudin, 
 V. N. Staroverov, T. A. Keith, R. Kobayashi, J. Normand, 
 K. Raghavachari, A. P. Rendell, J. C. Burant, S. S. Iyengar, 
 J. Tomasi, M. Cossi, J. M. Millam, M. Klene, C. Adamo, R. Cammi, 
 J. W. Ochterski, R. L. Martin, K. Morokuma, O. Farkas, 
 J. B. Foresman, and D. J. Fox, Gaussian, Inc., Wallingford CT, 2019.
 
 ******************************************
 Gaussian 16:  ES64L-G16RevC.02  7-Dec-2021
                30-Jan-2023 
 ******************************************
 %NProcShared=2
 Will use up to    2 processors via shared memory.
 %mem=110gb
 %chk=/scratch1/svicchi/G09-81761.pbs02/00-opt/FeFeFe-AO-1xH2O-opt.chk
 ----------------------------------------------------------------------
 #p gen um06l int=grid=ultrafine scf=(xqc,intrep,maxconventionalcycle=1
 50) pop=(hirshfeld) nosymm counterpoise=3
 ----------------------------------------------------------------------
 1/38=1,62=3,172=1/1;
 2/12=2,15=1,17=6,18=5,40=1/2;
 1/38=1,53=2,62=3,63=1/22;
 3/5=7,11=2,25=1,30=1,74=-53,75=-5,116=2/1,2,3;
 4//1;
 5/5=2,8=3,13=1,17=20,38=5,85=150/2,8;
 6/7=2,8=2,9=2,10=2,28=1,79=1/1;
 1/53=2,62=3,63=1/22;
 3/5=7,6=11,11=2,25=1,30=1,74=-53,75=-5,82=7,116=2/1,2,3;
 4//1;
 5/5=2,8=3,13=1,17=20,38=5,85=150/2,8;
 6/7=2,8=2,9=2,10=2,28=1,79=1/1;
 1/53=2,62=3,63=1/22(-4);
 99/5=1,9=1/99;
 Leave Link    1 at Mon Jan 30 08:42:32 2023, MaxMem= 14763950080 cpu:               0.0 elap:               0.1
 (Enter /software/commercial/gaussian/g16/AVX2/g16/l101.exe)
 ---------------
 FeFeFe-AO-1xH2O
 ---------------
 Symbolic Z-matrix:
 Charge =  0 Multiplicity =15 in supermolecule
 Charge =  0 Multiplicity =15 in fragment      1.
 Charge =  0 Multiplicity = 1 in fragment      2.
 Charge =  0 Multiplicity = 1 in fragment      3.
 O(fragment=1)         0.87566   2.52697   1.632 
 O(fragment=1)        -1.29496   1.93094   1.51317 
 C(fragment=1)        -0.32797   2.58005   1.97617 
 H(fragment=1)        -0.56667   3.2854    2.79064 
 O(fragment=1)         2.35635  -1.64146  -1.40618 
 O(fragment=1)         3.02632   0.50464  -1.25595 
 C(fragment=1)         3.06216  -0.65766  -1.72519 
 H(fragment=1)         3.80538  -0.83974  -2.52155 
 O(fragment=1)        -2.0027   -0.87999   1.44023 
 O(fragment=1)         2.94986   0.44077   1.60442 
 O(fragment=1)         2.37035  -1.73028   1.42403 
 C(fragment=1)         3.02574  -0.77326   1.90158 
 H(fragment=1)         3.75832  -1.03611   2.6838 
 O(fragment=1)        -1.23779   1.97201  -1.35213 
 O(fragment=1)         0.91552   2.62779  -1.23601 
 C(fragment=1)        -0.25266   2.66387  -1.69286 
 H(fragment=1)        -0.4363    3.39737  -2.49804 
 Fe(fragment=1)       -1.38459   0.52177   0.06298 
 O(fragment=1)        -1.98476  -0.81846  -1.38187 
 Fe(fragment=1)        0.91623  -1.72592   0.01971 
 O(fragment=1)        -0.3634   -2.38332  -1.41092 
 O(fragment=1)        -0.37868  -2.44329   1.41049 
 Fe(fragment=1)        1.82911   1.42713   0.2254 
 O(fragment=1)         0.46067   0.08353   0.08077 
 C(fragment=1)        -1.44296  -1.87275  -1.7895 
 H(fragment=1)        -1.9809   -2.4185   -2.58382 
 C(fragment=1)        -1.46221  -1.95134   1.80299 
 H(fragment=1)        -2.00598  -2.53375   2.56679 
 N(fragment=2)        -4.44808   0.01979  -0.00066 
 N(fragment=2)        -5.13544  -0.86626  -0.04093 
 O(fragment=2)        -3.73722   0.96529   0.04188 
 O(fragment=3)         3.36472   2.92513  -0.13177 
 H(fragment=3)         3.92463   2.41444  -0.73581 
 H(fragment=3)         2.86689   3.52198  -0.70952 
 
 ITRead=  0  0  0  0  0  0  0  0  0  0  0  0  0  0  0  0  0  0  0  0
 ITRead=  0  0  0  0  0  0  0  0  0  0  0  0  0  0
 MicOpt= -1 -1 -1 -1 -1 -1 -1 -1 -1 -1 -1 -1 -1 -1 -1 -1 -1 -1 -1 -1
 MicOpt= -1 -1 -1 -1 -1 -1 -1 -1 -1 -1 -1 -1 -1 -1
 NAtoms=     34 NQM=       34 NQMF=       0 NMMI=      0 NMMIF=      0
                NMic=       0 NMicF=      0.
                    Isotopes and Nuclear Properties:
 (Nuclear quadrupole moments (NQMom) in fm**2, nuclear magnetic moments (NMagM)
  in nuclear magnetons)

  Atom         1           2           3           4           5           6           7           8           9          10
 IAtWgt=          16          16          12           1          16          16          12           1          16          16
 AtmWgt=  15.9949146  15.9949146  12.0000000   1.0078250  15.9949146  15.9949146  12.0000000   1.0078250  15.9949146  15.9949146
 NucSpn=           0           0           0           1           0           0           0           1           0           0
 AtZEff=  -0.0000000  -0.0000000  -0.0000000  -0.0000000  -0.0000000  -0.0000000  -0.0000000  -0.0000000  -0.0000000  -0.0000000
 NQMom=    0.0000000   0.0000000   0.0000000   0.0000000   0.0000000   0.0000000   0.0000000   0.0000000   0.0000000   0.0000000
 NMagM=    0.0000000   0.0000000   0.0000000   2.7928460   0.0000000   0.0000000   0.0000000   2.7928460   0.0000000   0.0000000
 AtZNuc=   8.0000000   8.0000000   6.0000000   1.0000000   8.0000000   8.0000000   6.0000000   1.0000000   8.0000000   8.0000000

  Atom        11          12          13          14          15          16          17          18          19          20
 IAtWgt=          16          12           1          16          16          12           1          56          16          56
 AtmWgt=  15.9949146  12.0000000   1.0078250  15.9949146  15.9949146  12.0000000   1.0078250  55.9349393  15.9949146  55.9349393
 NucSpn=           0           0           1           0           0           0           1           0           0           0
 AtZEff=  -0.0000000  -0.0000000  -0.0000000  -0.0000000  -0.0000000  -0.0000000  -0.0000000  -0.0000000  -0.0000000  -0.0000000
 NQMom=    0.0000000   0.0000000   0.0000000   0.0000000   0.0000000   0.0000000   0.0000000   0.0000000   0.0000000   0.0000000
 NMagM=    0.0000000   0.0000000   2.7928460   0.0000000   0.0000000   0.0000000   2.7928460   0.0000000   0.0000000   0.0000000
 AtZNuc=   8.0000000   6.0000000   1.0000000   8.0000000   8.0000000   6.0000000   1.0000000  26.0000000   8.0000000  26.0000000

  Atom        21          22          23          24          25          26          27          28          29          30
 IAtWgt=          16          16          56          16          12           1          12           1          14          14
 AtmWgt=  15.9949146  15.9949146  55.9349393  15.9949146  12.0000000   1.0078250  12.0000000   1.0078250  14.0030740  14.0030740
 NucSpn=           0           0           0           0           0           1           0           1           2           2
 AtZEff=  -0.0000000  -0.0000000  -0.0000000  -0.0000000  -0.0000000  -0.0000000  -0.0000000  -0.0000000  -0.0000000  -0.0000000
 NQMom=    0.0000000   0.0000000   0.0000000   0.0000000   0.0000000   0.0000000   0.0000000   0.0000000   2.0440000   2.0440000
 NMagM=    0.0000000   0.0000000   0.0000000   0.0000000   0.0000000   2.7928460   0.0000000   2.7928460   0.4037610   0.4037610
 AtZNuc=   8.0000000   8.0000000  26.0000000   8.0000000   6.0000000   1.0000000   6.0000000   1.0000000   7.0000000   7.0000000

  Atom        31          32          33          34
 IAtWgt=          16          16           1           1
 AtmWgt=  15.9949146  15.9949146   1.0078250   1.0078250
 NucSpn=           0           0           1           1
 AtZEff=  -0.0000000  -0.0000000  -0.0000000  -0.0000000
 NQMom=    0.0000000   0.0000000   0.0000000   0.0000000
 NMagM=    0.0000000   0.0000000   2.7928460   2.7928460
 AtZNuc=   8.0000000   8.0000000   1.0000000   1.0000000
 Leave Link  101 at Mon Jan 30 08:42:33 2023, MaxMem= 14763950080 cpu:               0.1 elap:               0.1
 (Enter /software/commercial/gaussian/g16/AVX2/g16/l202.exe)
                          Input orientation:                          
 ---------------------------------------------------------------------
 Center     Atomic      Atomic             Coordinates (Angstroms)
 Number     Number       Type             X           Y           Z
 ---------------------------------------------------------------------
      1          8           0        0.875659    2.526972    1.632000
      2          8           0       -1.294963    1.930939    1.513165
      3          6           0       -0.327966    2.580047    1.976165
      4          1           0       -0.566666    3.285400    2.790640
      5          8           0        2.356351   -1.641458   -1.406179
      6          8           0        3.026318    0.504637   -1.255951
      7          6           0        3.062159   -0.657660   -1.725187
      8          1           0        3.805383   -0.839738   -2.521546
      9          8           0       -2.002702   -0.879988    1.440234
     10          8           0        2.949864    0.440771    1.604416
     11          8           0        2.370355   -1.730278    1.424031
     12          6           0        3.025738   -0.773257    1.901582
     13          1           0        3.758321   -1.036107    2.683796
     14          8           0       -1.237791    1.972010   -1.352134
     15          8           0        0.915518    2.627786   -1.236008
     16          6           0       -0.252664    2.663872   -1.692855
     17          1           0       -0.436302    3.397370   -2.498044
     18         26           0       -1.384585    0.521770    0.062976
     19          8           0       -1.984761   -0.818458   -1.381874
     20         26           0        0.916230   -1.725918    0.019706
     21          8           0       -0.363397   -2.383322   -1.410920
     22          8           0       -0.378678   -2.443288    1.410485
     23         26           0        1.829106    1.427134    0.225398
     24          8           0        0.460668    0.083531    0.080767
     25          6           0       -1.442960   -1.872754   -1.789502
     26          1           0       -1.980901   -2.418498   -2.583824
     27          6           0       -1.462209   -1.951342    1.802989
     28          1           0       -2.005980   -2.533749    2.566792
     29          7           0       -4.448079    0.019787   -0.000661
     30          7           0       -5.135438   -0.866263   -0.040932
     31          8           0       -3.737223    0.965290    0.041880
     32          8           0        3.364725    2.925129   -0.131768
     33          1           0        3.924630    2.414444   -0.735811
     34          1           0        2.866890    3.521975   -0.709516
 ---------------------------------------------------------------------
                    Distance matrix (angstroms):
                    1          2          3          4          5
     1  O    0.000000
     2  O    2.254102   0.000000
     3  C    1.252988   1.253313   0.000000
     4  H    1.999490   1.999231   1.103572   0.000000
     5  O    5.366450   5.883594   6.038784   7.101496   0.000000
     6  O    4.129823   5.326895   5.099522   6.084166   2.253253
     7  C    5.117946   6.014340   5.972914   7.007766   1.252114
     8  H    6.096717   7.068881   7.000636   8.021901   1.996620
     9  O    4.464203   2.899573   3.881212   4.608281   5.261487
    10  O    2.941993   4.499720   3.931777   4.676005   3.708317
    11  O    4.516807   5.181410   5.115143   5.970824   2.831638
    12  C    3.948041   5.111947   4.743157   5.492585   3.484700
    13  H    4.702292   5.975736   5.502277   6.114929   4.365761
    14  O    3.698609   2.866164   3.503579   4.397497   5.096855
    15  O    2.870056   3.595800   3.444791   4.340878   4.509036
    16  C    3.513761   3.449948   3.670750   4.537248   5.042322
    17  H    4.419966   4.356319   4.549538   5.291475   5.863520
    18  Fe   3.404611   2.024065   3.002206   3.968223   4.564271
    19  O    5.334542   4.051698   5.056801   6.021837   4.418503
    20  Fe   4.548430   4.526853   4.890510   5.915265   2.028356
    21  O    5.908097   5.294425   6.009046   7.058954   2.819116
    22  O    5.130879   4.470345   5.055340   5.895594   4.007108
    23  Fe   2.024163   3.416427   3.007882   3.971567   3.515151
    24  O    2.923858   2.923512   3.232193   4.318656   2.963142
    25  C    6.036577   5.039602   5.937247   6.953571   3.825598
    26  H    7.098646   6.014435   6.964994   7.963628   4.560964
    27  C    5.054717   3.896675   4.674397   5.403787   4.997618
    28  H    5.898184   4.642102   5.414377   5.998686   5.967463
    29  N    6.106860   3.985764   5.238139   5.789729   7.143912
    30  N    7.102537   4.998880   6.249602   6.791744   7.654523
    31  O    5.123086   3.010281   4.239332   4.794896   6.784074
    32  O    3.076501   5.040527   4.265962   4.911833   4.847129
    33  H    3.862048   5.704018   5.046465   5.776345   4.399913
    34  H    3.230747   4.979230   4.278693   4.908805   5.235172
                    6          7          8          9         10
     6  O    0.000000
     7  C    1.253954   0.000000
     8  H    2.004000   1.104410   0.000000
     9  O    5.871767   5.976800   7.030731   0.000000
    10  O    2.862101   3.507908   4.403996   5.128281   0.000000
    11  O    3.550695   3.398040   4.291846   4.454984   2.254290
    12  C    3.406322   3.628794   4.491807   5.050687   1.252170
    13  H    4.293172   4.479620   5.209257   5.895779   1.999958
    14  O    4.510550   5.054098   5.891269   4.064025   5.349985
    15  O    2.993933   3.954936   4.693362   5.289873   4.121845
    16  C    3.950304   4.692725   5.424920   5.043592   5.105914
    17  H    4.679790   5.411082   5.995459   6.021581   6.085867
    18  Fe   4.603903   4.935799   5.955605   2.060057   4.601092
    19  O    5.184337   5.061138   5.901277   2.822836   5.903737
    20  Fe   3.324928   2.964935   3.948478   3.354648   3.367716
    21  O    4.455838   3.848520   4.582016   3.616132   5.295796
    22  O    5.233941   4.986007   5.961427   2.254384   4.408469
    23  Fe   2.116297   3.109914   4.073092   4.634802   2.032413
    24  O    2.923475   3.252474   4.337231   2.974006   2.940276
    25  C    5.090296   4.666550   5.398899   3.424922   6.013982
    26  H    5.948126   5.410200   5.998120   4.308193   7.073133
    27  C    5.961193   5.881458   6.905418   1.253604   5.022751
    28  H    7.012074   6.901219   7.907768   2.001017   5.859550
    29  N    7.594567   7.735412   8.672559   2.977523   7.581758
    30  N    8.364801   8.371429   9.278601   3.465267   8.353898
    31  O    6.902322   7.210277   8.168242   2.892924   6.887218
    32  O    2.690184   3.932799   4.481009   6.764568   3.059163
    33  H    2.173677   3.340740   3.713862   7.121918   3.212821
    34  H    3.070560   4.305702   4.815471   6.907361   3.854216
                   11         12         13         14         15
    11  O    0.000000
    12  C    1.254381   0.000000
    13  H    1.998832   1.103461   0.000000
    14  O    5.867942   6.025018   7.092153   0.000000
    15  O    5.308962   5.085724   6.072109   2.253945   0.000000
    16  C    5.991975   5.956656   6.995207   1.251095   1.254855
    17  H    7.039373   6.981157   8.006375   1.996784   2.003101
    18  Fe   4.585168   4.950608   5.978726   2.031571   3.378333
    19  O    5.260376   5.990678   7.039889   2.888868   4.506605
    20  Fe   2.021541   2.983127   3.956096   4.494043   4.531176
    21  O    3.992094   5.005119   5.964080   4.442627   5.174690
    22  O    2.840026   3.823641   4.551510   5.278730   5.864696
    23  Fe   3.420369   3.013842   3.979089   3.491612   2.100456
    24  O    2.956546   3.260220   4.347857   2.916217   2.900693
    25  C    4.988834   5.899344   6.911129   3.874996   5.111128
    26  H    5.955668   6.920413   7.911858   4.620155   5.972506
    27  C    3.857593   4.641042   5.372840   5.039629   5.988113
    28  H    4.593885   5.372152   5.956827   6.020794   7.045416
    29  N    7.182167   7.752766   8.698633   3.992944   6.090641
    30  N    7.696075   8.389684   9.303329   4.996669   7.088770
    31  O    6.817546   7.226249   8.195638   3.033796   5.103419
    32  O    5.008203   4.234086   4.875829   4.856015   2.703030
    33  H    4.925384   4.233826   4.860830   5.217872   3.057853
    34  H    5.690758   5.029124   5.751985   4.434383   2.210118
                   16         17         18         19         20
    16  C    0.000000
    17  H    1.104568   0.000000
    18  Fe   2.992121   3.965746   0.000000
    19  O    3.901729   4.627825   2.060100   0.000000
    20  Fe   4.854836   5.866557   3.216788   3.347187   0.000000
    21  O    5.056275   5.882479   3.413906   2.253545   2.028871
    22  O    5.977431   7.028030   3.408695   3.607886   2.031175
    23  Fe   3.089172   4.053522   3.342735   4.708672   3.288980
    24  O    3.211345   4.293757   1.896662   2.988817   1.866915
    25  C    4.691175   5.411987   3.028007   1.253495   2.976671
    26  H    5.441609   6.018095   4.000790   2.001206   3.956185
    27  C    5.914738   6.939747   3.024889   3.420503   2.981256
    28  H    6.945068   7.955792   3.998928   4.305187   3.959741
    29  N    5.239868   5.808558   3.105001   2.945902   5.641251
    30  N    6.247574   6.804252   4.000791   3.424497   6.112722
    31  O    4.246956   4.823101   2.394172   2.877491   5.375660
    32  O    3.948513   4.502231   5.326350   6.647873   5.258356
    33  H    4.292777   4.805136   5.692806   6.766828   5.173381
    34  H    3.381555   3.758382   5.260515   6.544459   5.645992
                   21         22         23         24         25
    21  O    0.000000
    22  O    2.822084   0.000000
    23  Fe   4.690861   4.610738   0.000000
    24  O    2.998262   2.976150   1.923229   0.000000
    25  C    1.252781   3.420252   5.065126   3.308891   0.000000
    26  H    1.998314   4.303747   6.098915   4.395618   1.103705
    27  C    3.423917   1.253040   4.973495   3.286976   3.593402
    28  H    4.306147   1.998335   5.989875   4.372051   4.441982
    29  N    4.944531   4.961663   6.436985   4.909836   3.976481
    30  N    5.191407   5.217316   7.337266   5.677440   4.207721
    31  O    4.970567   4.977078   5.588470   4.289674   4.083148
    32  O    6.611715   6.723951   2.174783   4.068587   6.991538
    33  H    6.470047   6.835394   2.507972   4.254291   6.949918
    34  H    6.767515   7.114245   2.517820   4.270521   6.988868
                   26         27         28         29         30
    26  H    0.000000
    27  C    4.442005   0.000000
    28  H    5.151966   1.103757   0.000000
    29  N    4.324920   4.006735   4.367632   0.000000
    30  N    4.338990   4.250888   4.401618   1.122127   0.000000
    31  O    4.629148   4.096820   4.649264   1.183682   2.305743
    32  O    7.946235   7.128993   8.119486   8.336552   9.307829
    33  H    7.851610   7.384012   8.400234   8.739398   9.660783
    34  H    7.893246   7.416939   8.435096   8.141042   9.151005
                   31         32         33         34
    31  O    0.000000
    32  O    7.369450   0.000000
    33  H    7.836379   0.969103   0.000000
    34  H    7.121485   0.968430   1.531708   0.000000
 Symmetry turned off by external request.
 Stoichiometry    C6H8Fe3N2O15(15)
 Framework group  C1[X(C6H8Fe3N2O15)]
 Deg. of freedom    96
 Full point group                 C1      NOp   1
 Rotational constants (GHZ):           0.2465225           0.1630753           0.1327545
 Leave Link  202 at Mon Jan 30 08:42:33 2023, MaxMem= 14763950080 cpu:               0.0 elap:               0.0
 (Enter /software/commercial/gaussian/g16/AVX2/g16/l122.exe)
 Counterpoise: doing full-system calculation.
 Leave Link  122 at Mon Jan 30 08:42:33 2023, MaxMem= 14763950080 cpu:               0.0 elap:               0.0
 (Enter /software/commercial/gaussian/g16/AVX2/g16/l301.exe)
 General basis read from cards:  (5D, 7F)
 Centers:       4      8     13     17     26     28     33     34
 S 3 1.00
     Exponent=  3.4061341000D+01 Coefficients=  6.0251978000D-03
     Exponent=  5.1235746000D+00 Coefficients=  4.5021094000D-02
     Exponent=  1.1646626000D+00 Coefficients=  2.0189726000D-01
 S 1 1.00
     Exponent=  3.2723041000D-01 Coefficients=  1.0000000000D+00
 S 1 1.00
     Exponent=  1.0307241000D-01 Coefficients=  1.0000000000D+00
 P 1 1.00
     Exponent=  8.0000000000D-01 Coefficients=  1.0000000000D+00
 ****
 Centers:       1      2      5      6      9     10     11     14     15     19
 Centers:      21     22     24     31     32
 S 6 1.00
     Exponent=  2.7032382631D+04 Coefficients=  2.1726302465D-04
     Exponent=  4.0523871392D+03 Coefficients=  1.6838662199D-03
     Exponent=  9.2232722710D+02 Coefficients=  8.7395616265D-03
     Exponent=  2.6124070989D+02 Coefficients=  3.5239968808D-02
     Exponent=  8.5354641351D+01 Coefficients=  1.1153519115D-01
     Exponent=  3.1035035245D+01 Coefficients=  2.5588953961D-01
 S 2 1.00
     Exponent=  1.2260860728D+01 Coefficients=  3.9768730901D-01
     Exponent=  4.9987076005D+00 Coefficients=  2.4627849430D-01
 S 1 1.00
     Exponent=  1.1703108158D+00 Coefficients=  1.0000000000D+00
 S 1 1.00
     Exponent=  4.6474740994D-01 Coefficients=  1.0000000000D+00
 S 1 1.00
     Exponent=  1.8504536357D-01 Coefficients=  1.0000000000D+00
 P 4 1.00
     Exponent=  6.3274954801D+01 Coefficients=  6.0685103418D-03
     Exponent=  1.4627049379D+01 Coefficients=  4.1912575824D-02
     Exponent=  4.4501223456D+00 Coefficients=  1.6153841088D-01
     Exponent=  1.5275799647D+00 Coefficients=  3.5706951311D-01
 P 1 1.00
     Exponent=  5.2935117943D-01 Coefficients=  4.4794207502D-01
 P 1 1.00
     Exponent=  1.7478421270D-01 Coefficients=  2.4446069663D-01
 D 1 1.00
     Exponent=  2.3140000000D+00 Coefficients=  1.0000000000D+00
 D 1 1.00
     Exponent=  6.4500000000D-01 Coefficients=  1.0000000000D+00
 F 1 1.00
     Exponent=  1.4280000000D+00 Coefficients=  1.0000000000D+00
 ****
 Centers:       3      7     12     16     25     27
 S 6 1.00
     Exponent=  1.3575349682D+04 Coefficients=  2.2245814352D-04
     Exponent=  2.0352333680D+03 Coefficients=  1.7232738252D-03
     Exponent=  4.6322562359D+02 Coefficients=  8.9255715314D-03
     Exponent=  1.3120019598D+02 Coefficients=  3.5727984502D-02
     Exponent=  4.2853015891D+01 Coefficients=  1.1076259931D-01
     Exponent=  1.5584185766D+01 Coefficients=  2.4295627626D-01
 S 2 1.00
     Exponent=  6.2067138508D+00 Coefficients=  4.1440263448D-01
     Exponent=  2.5764896527D+00 Coefficients=  2.3744968655D-01
 S 1 1.00
     Exponent=  5.7696339419D-01 Coefficients=  1.0000000000D+00
 S 1 1.00
     Exponent=  2.2972831358D-01 Coefficients=  1.0000000000D+00
 S 1 1.00
     Exponent=  9.5164440028D-02 Coefficients=  1.0000000000D+00
 P 4 1.00
     Exponent=  3.4697232244D+01 Coefficients=  5.3333657805D-03
     Exponent=  7.9582622826D+00 Coefficients=  3.5864109092D-02
     Exponent=  2.3780826883D+00 Coefficients=  1.4215873329D-01
     Exponent=  8.1433208183D-01 Coefficients=  3.4270471845D-01
 P 1 1.00
     Exponent=  2.8887547253D-01 Coefficients=  4.6445822433D-01
 P 1 1.00
     Exponent=  1.0056823671D-01 Coefficients=  2.4955789874D-01
 D 1 1.00
     Exponent=  1.0970000000D+00 Coefficients=  1.0000000000D+00
 D 1 1.00
     Exponent=  3.1800000000D-01 Coefficients=  1.0000000000D+00
 F 1 1.00
     Exponent=  7.6100000000D-01 Coefficients=  1.0000000000D+00
 ****
 Centers:      18     20     23
 S 8 1.00
     Exponent=  3.0078484637D+05 Coefficients=  2.2806273096D-04
     Exponent=  4.5088970557D+04 Coefficients=  1.7681788761D-03
     Exponent=  1.0262516317D+04 Coefficients=  9.1927083490D-03
     Exponent=  2.9052897293D+03 Coefficients=  3.7355495807D-02
     Exponent=  9.4611487137D+02 Coefficients=  1.2151108426D-01
     Exponent=  3.3987832894D+02 Coefficients=  2.8818881468D-01
     Exponent=  1.3194425588D+02 Coefficients=  4.1126612677D-01
     Exponent=  5.2111494077D+01 Coefficients=  2.1518583573D-01
 S 4 1.00
     Exponent=  3.2948839267D+02 Coefficients= -2.4745216477D-02
     Exponent=  1.0192332739D+02 Coefficients= -1.1683089050D-01
     Exponent=  1.6240462745D+01 Coefficients=  5.5293621136D-01
     Exponent=  6.8840675801D+00 Coefficients=  5.3601640182D-01
 S 2 1.00
     Exponent=  1.0470693782D+01 Coefficients= -2.2912708577D-01
     Exponent=  1.7360039648D+00 Coefficients=  7.1159319984D-01
 S 1 1.00
     Exponent=  7.2577288979D-01 Coefficients=  1.0000000000D+00
 S 1 1.00
     Exponent=  1.1595528203D-01 Coefficients=  1.0000000000D+00
 S 1 1.00
     Exponent=  4.1968227746D-02 Coefficients=  1.0000000000D+00
 P 6 1.00
     Exponent=  1.5853959970D+03 Coefficients=  2.3793960179D-03
     Exponent=  3.7538006499D+02 Coefficients=  1.9253154755D-02
     Exponent=  1.2031816501D+02 Coefficients=  9.0021836536D-02
     Exponent=  4.4788749031D+01 Coefficients=  2.5798172356D-01
     Exponent=  1.7829278584D+01 Coefficients=  4.1492649744D-01
     Exponent=  7.2247153786D+00 Coefficients=  2.4207474784D-01
 P 3 1.00
     Exponent=  2.8143219756D+01 Coefficients= -2.9041755152D-02
     Exponent=  3.8743241412D+00 Coefficients=  5.5312260343D-01
     Exponent=  1.5410752281D+00 Coefficients=  9.6771136842D-01
 P 1 1.00
     Exponent=  5.8285615250D-01 Coefficients=  1.0000000000D+00
 P 1 1.00
     Exponent=  1.3491500000D-01 Coefficients=  1.0000000000D+00
 D 4 1.00
     Exponent=  6.1996675034D+01 Coefficients=  1.1971972255D-02
     Exponent=  1.7873732552D+01 Coefficients=  7.3210135410D-02
     Exponent=  6.2744782934D+00 Coefficients=  2.3103094314D-01
     Exponent=  2.3552337175D+00 Coefficients=  3.9910706494D-01
 D 1 1.00
     Exponent=  8.5432239901D-01 Coefficients=  4.1391589765D-01
 D 1 1.00
     Exponent=  2.7869254413D-01 Coefficients=  2.1909269782D-01
 D 1 1.00
     Exponent=  9.1000000000D-02 Coefficients=  1.0000000000D+00
 F 1 1.00
     Exponent=  1.5980000000D+00 Coefficients=  1.0000000000D+00
 ****
 Centers:      29     30
 S 6 1.00
     Exponent=  1.9730800647D+04 Coefficients=  2.1887984991D-04
     Exponent=  2.9578958745D+03 Coefficients=  1.6960708803D-03
     Exponent=  6.7322133595D+02 Coefficients=  8.7954603538D-03
     Exponent=  1.9068249494D+02 Coefficients=  3.5359382605D-02
     Exponent=  6.2295441898D+01 Coefficients=  1.1095789217D-01
     Exponent=  2.2654161182D+01 Coefficients=  2.4982972552D-01
 S 2 1.00
     Exponent=  8.9791477428D+00 Coefficients=  4.0623896148D-01
     Exponent=  3.6863002370D+00 Coefficients=  2.4338217176D-01
 S 1 1.00
     Exponent=  8.4660076805D-01 Coefficients=  1.0000000000D+00
 S 1 1.00
     Exponent=  3.3647133771D-01 Coefficients=  1.0000000000D+00
 S 1 1.00
     Exponent=  1.3647653675D-01 Coefficients=  1.0000000000D+00
 P 4 1.00
     Exponent=  4.9200380510D+01 Coefficients=  5.5552416751D-03
     Exponent=  1.1346790537D+01 Coefficients=  3.8052379723D-02
     Exponent=  3.4273972411D+00 Coefficients=  1.4953671029D-01
     Exponent=  1.1785525134D+00 Coefficients=  3.4949305230D-01
 P 1 1.00
     Exponent=  4.1642204972D-01 Coefficients=  4.5843153697D-01
 P 1 1.00
     Exponent=  1.4260826011D-01 Coefficients=  2.4428771672D-01
 D 1 1.00
     Exponent=  1.6540000000D+00 Coefficients=  1.0000000000D+00
 D 1 1.00
     Exponent=  4.6900000000D-01 Coefficients=  1.0000000000D+00
 F 1 1.00
     Exponent=  1.0930000000D+00 Coefficients=  1.0000000000D+00
 ****
 Ernie: Thresh=  0.10000D-02 Tol=  0.10000D-05 Strict=F.
   896 basis functions,  1543 primitive gaussians,  1032 cartesian basis functions
   135 alpha electrons      121 beta electrons
       nuclear repulsion energy      4738.2498114942 Hartrees.
 IExCor= 4134 DFT=T Ex+Corr=M06L ExCW=0 ScaHFX=  0.000000
 ScaDFX=  1.000000  1.000000  1.000000  1.000000 ScalE2=  1.000000  1.000000
 IRadAn=      5 IRanWt=     -1 IRanGd=            0 ICorTp=0 IEmpDi=  4
 NAtoms=   34 NActive=   34 NUniq=   34 SFac= 1.00D+00 NAtFMM=   60 NAOKFM=F Big=F
 Integral buffers will be    131072 words long.
 Raffenetti 2 integral format.
 Two-electron integral symmetry is turned off.
 Leave Link  301 at Mon Jan 30 08:42:33 2023, MaxMem= 14763950080 cpu:               0.1 elap:               0.1
 (Enter /software/commercial/gaussian/g16/AVX2/g16/l302.exe)
 NPDir=0 NMtPBC=     1 NCelOv=     1 NCel=       1 NClECP=     1 NCelD=      1
         NCelK=      1 NCelE2=     1 NClLst=     1 CellRange=     0.0.
 One-electron integrals computed using PRISM.
 NBasis=   896 RedAO= T EigKep=  1.11D-04  NBF=   896
 NBsUse=   896 1.00D-06 EigRej= -1.00D+00 NBFU=   896
 Precomputing XC quadrature grid using
 IXCGrd= 4 IRadAn=           5 IRanWt=          -1 IRanGd=           0 AccXCQ= 0.00D+00.
 Generated NRdTot=       0 NPtTot=           0 NUsed=           0 NTot=          32
 NSgBfM=  1013  1013  1013  1013  1013 MxSgAt=    34 MxSgA2=    34.
 Leave Link  302 at Mon Jan 30 08:42:35 2023, MaxMem= 14763950080 cpu:               2.7 elap:               1.7
 (Enter /software/commercial/gaussian/g16/AVX2/g16/l303.exe)
 DipDrv:  MaxL=1.
 Leave Link  303 at Mon Jan 30 08:42:36 2023, MaxMem= 14763950080 cpu:               0.2 elap:               0.2
 (Enter /software/commercial/gaussian/g16/AVX2/g16/l401.exe)
 ExpMin= 4.20D-02 ExpMax= 3.01D+05 ExpMxC= 2.91D+03 IAcc=3 IRadAn=         5 AccDes= 0.00D+00
 Harris functional with IExCor= 1009 and IRadAn=       5 diagonalized for initial guess.
 HarFok:  IExCor= 1009 AccDes= 0.00D+00 IRadAn=         5 IDoV= 1 UseB2=F ITyADJ=14
 ICtDFT=  3500011 ScaDFX=  1.000000  1.000000  1.000000  1.000000
 FoFCou: FMM=F IPFlag=           0 FMFlag=      100000 FMFlg1=           0
         NFxFlg=           0 DoJE=T BraDBF=F KetDBF=T FulRan=T
         wScrn=  0.000000 ICntrl=       500 IOpCl=  0 I1Cent=   200000004 NGrid=           0
         NMat0=    1 NMatS0=      1 NMatT0=    0 NMatD0=    1 NMtDS0=    0 NMtDT0=    0
 Symmetry not used in FoFCou.
 Harris En= -5260.93964868248    
 JPrj=0 DoOrth=F DoCkMO=F.
 Initial guess <Sx>= 0.0000 <Sy>= 0.0000 <Sz>= 7.0000 <S**2>=56.0000 S= 7.0000
 Leave Link  401 at Mon Jan 30 08:42:52 2023, MaxMem= 14763950080 cpu:              31.4 elap:              16.1
 (Enter /software/commercial/gaussian/g16/AVX2/g16/l502.exe)
 Two-electron integral symmetry not used.
 UHF open shell SCF:
 Using DIIS extrapolation, IDIIS=  1040.
 NGot= 14763950080 LenX= 14761806610 LenY= 14760740554
 Requested convergence on RMS density matrix=1.00D-08 within 150 cycles.
 Requested convergence on MAX density matrix=1.00D-06.
 Requested convergence on             energy=1.00D-06.
 No special actions if energy rises.
 Fock matrices will be formed incrementally for  20 cycles.

 Cycle   1  Pass 1  IDiag  1:
 FoFJK:  IHMeth= 1 ICntrl=     500 DoSepK=F KAlg= 0 I1Cent=           0 FoldK=F
 IRaf= 760000000 NMat=       1 IRICut=       1 DoRegI=T DoRafI=F ISym2E= 0 IDoP0=0 IntGTp=1.
 FoFCou: FMM=F IPFlag=           0 FMFlag=      100000 FMFlg1=           0
         NFxFlg=           0 DoJE=T BraDBF=F KetDBF=F FulRan=T
         wScrn=  0.000000 ICntrl=       500 IOpCl=  0 I1Cent=           0 NGrid=           0
         NMat0=    1 NMatS0=      1 NMatT0=    0 NMatD0=    1 NMtDS0=    0 NMtDT0=    0
 Symmetry not used in FoFCou.
 E= -5262.21659111660    
 DIIS: error= 3.63D-02 at cycle   1 NSaved=   1.
 NSaved= 1 IEnMin= 1 EnMin= -5262.21659111660     IErMin= 1 ErrMin= 3.63D-02
 ErrMax= 3.63D-02  0.00D+00 EMaxC= 1.00D-01 BMatC= 8.75D+00 BMatP= 8.75D+00
 IDIUse=3 WtCom= 6.37D-01 WtEn= 3.63D-01
 Coeff-Com:  0.100D+01
 Coeff-En:   0.100D+01
 Coeff:      0.100D+01
 Gap=     0.426 Goal=   None    Shift=    0.000
 Gap=     0.016 Goal=   None    Shift=    0.000
 GapD=    0.016 DampG=0.250 DampE=0.250 DampFc=0.1250 IDamp=-1.
 Damping current iteration by 1.25D-01
 RMSDP=3.13D-03 MaxDP=4.91D-01              OVMax= 8.38D-01

 Cycle   2  Pass 1  IDiag  1:
 RMSU=  3.91D-04    CP:  9.98D-01
 E= -5262.44411297117     Delta-E=       -0.227521854569 Rises=F Damp=T
 DIIS: error= 1.97D-02 at cycle   2 NSaved=   2.
 NSaved= 2 IEnMin= 2 EnMin= -5262.44411297117     IErMin= 2 ErrMin= 1.97D-02
 ErrMax= 1.97D-02  0.00D+00 EMaxC= 1.00D-01 BMatC= 2.35D+00 BMatP= 8.75D+00
 IDIUse=3 WtCom= 8.03D-01 WtEn= 1.97D-01
 Coeff-Com: -0.383D+00 0.138D+01
 Coeff-En:   0.263D+00 0.737D+00
 Coeff:     -0.255D+00 0.126D+01
 Gap=     0.063 Goal=   None    Shift=    0.000
 Gap=     0.012 Goal=   None    Shift=    0.000
 RMSDP=2.14D-03 MaxDP=1.79D-01 DE=-2.28D-01 OVMax= 9.76D-01

 Cycle   3  Pass 1  IDiag  1:
 RMSU=  2.13D-03    CP:  9.86D-01  1.38D+00
 E= -5258.43808275078     Delta-E=        4.006030220393 Rises=F Damp=F
 DIIS: error= 1.14D-01 at cycle   3 NSaved=   3.
 NSaved= 3 IEnMin= 2 EnMin= -5262.44411297117     IErMin= 2 ErrMin= 1.97D-02
 ErrMax= 1.14D-01  0.00D+00 EMaxC= 1.00D-01 BMatC= 1.82D+01 BMatP= 2.35D+00
 IDIUse=2 WtCom= 0.00D+00 WtEn= 1.00D+00
 EnCoef did     5 forward-backward iterations
 Coeff-En:   0.152D+00 0.767D+00 0.805D-01
 Coeff:      0.152D+00 0.767D+00 0.805D-01
 Gap=     0.069 Goal=   None    Shift=    0.000
 Gap=     0.009 Goal=   None    Shift=    0.000
 RMSDP=2.13D-03 MaxDP=2.25D-01 DE= 4.01D+00 OVMax= 9.64D-01

 Cycle   4  Pass 1  IDiag  1:
 RMSU=  1.07D-03    CP:  1.00D+00  2.84D+00  1.81D-01
 E= -5261.58263323211     Delta-E=       -3.144550481336 Rises=F Damp=F
 DIIS: error= 7.86D-02 at cycle   4 NSaved=   4.
 NSaved= 4 IEnMin= 2 EnMin= -5262.44411297117     IErMin= 2 ErrMin= 1.97D-02
 ErrMax= 7.86D-02  0.00D+00 EMaxC= 1.00D-01 BMatC= 1.18D+01 BMatP= 2.35D+00
 IDIUse=2 WtCom= 0.00D+00 WtEn= 1.00D+00
 EnCoef did   100 forward-backward iterations
 Coeff-En:   0.563D+00 0.131D-01 0.146D-01 0.409D+00
 Coeff:      0.563D+00 0.131D-01 0.146D-01 0.409D+00
 Gap=     0.209 Goal=   None    Shift=    0.000
 Gap=     0.149 Goal=   None    Shift=    0.000
 RMSDP=1.11D-03 MaxDP=1.68D-01 DE=-3.14D+00 OVMax= 7.99D-01

 Cycle   5  Pass 1  IDiag  1:
 RMSU=  7.96D-04    CP:  1.00D+00  1.53D+00  2.23D-01  4.73D-01
 E= -5262.82626303246     Delta-E=       -1.243629800345 Rises=F Damp=F
 DIIS: error= 2.34D-02 at cycle   5 NSaved=   5.
 NSaved= 5 IEnMin= 5 EnMin= -5262.82626303246     IErMin= 2 ErrMin= 1.97D-02
 ErrMax= 2.34D-02  0.00D+00 EMaxC= 1.00D-01 BMatC= 2.36D+00 BMatP= 2.35D+00
 IDIUse=3 WtCom= 7.66D-01 WtEn= 2.34D-01
 EnCoef did     6 forward-backward iterations
 Coeff-Com:  0.189D+00 0.210D+00 0.501D-01 0.264D+00 0.287D+00
 Coeff-En:   0.270D+00 0.000D+00 0.000D+00 0.253D+00 0.477D+00
 Coeff:      0.208D+00 0.161D+00 0.383D-01 0.261D+00 0.332D+00
 Gap=     0.260 Goal=   None    Shift=    0.000
 Gap=     0.018 Goal=   None    Shift=    0.000
 RMSDP=1.00D-03 MaxDP=2.51D-01 DE=-1.24D+00 OVMax= 9.78D-01

 Cycle   6  Pass 1  IDiag  1:
 RMSU=  7.42D-04    CP:  1.00D+00  1.43D+00  1.79D-01  5.73D-01  1.76D-01
 E= -5262.67932181040     Delta-E=        0.146941222059 Rises=F Damp=F
 DIIS: error= 2.58D-02 at cycle   6 NSaved=   6.
 NSaved= 6 IEnMin= 5 EnMin= -5262.82626303246     IErMin= 2 ErrMin= 1.97D-02
 ErrMax= 2.58D-02  0.00D+00 EMaxC= 1.00D-01 BMatC= 3.41D+00 BMatP= 2.35D+00
 IDIUse=2 WtCom= 0.00D+00 WtEn= 1.00D+00
 Coeff-En:   0.000D+00 0.000D+00 0.000D+00 0.000D+00 0.542D+00 0.458D+00
 Coeff:      0.000D+00 0.000D+00 0.000D+00 0.000D+00 0.542D+00 0.458D+00
 Gap=     0.260 Goal=   None    Shift=    0.000
 Gap=     0.011 Goal=   None    Shift=    0.000
 RMSDP=9.77D-04 MaxDP=1.76D-01 DE= 1.47D-01 OVMax= 7.58D-01

 Cycle   7  Pass 1  IDiag  1:
 RMSU=  7.45D-04    CP:  1.00D+00  2.29D+00  1.32D-01  7.16D-01  1.71D-01
                    CP:  3.24D-01
 E= -5261.57003715882     Delta-E=        1.109284651580 Rises=F Damp=F
 DIIS: error= 1.01D-01 at cycle   7 NSaved=   7.
 NSaved= 7 IEnMin= 5 EnMin= -5262.82626303246     IErMin= 2 ErrMin= 1.97D-02
 ErrMax= 1.01D-01  0.00D+00 EMaxC= 1.00D-01 BMatC= 1.18D+01 BMatP= 2.35D+00
 IDIUse=2 WtCom= 0.00D+00 WtEn= 1.00D+00
 EnCoef did     2 forward-backward iterations
 Coeff-En:   0.000D+00 0.000D+00 0.000D+00 0.000D+00 0.525D+00 0.399D+00
 Coeff-En:   0.765D-01
 Coeff:      0.000D+00 0.000D+00 0.000D+00 0.000D+00 0.525D+00 0.399D+00
 Coeff:      0.765D-01
 Gap=     0.193 Goal=   None    Shift=    0.000
 Gap=     0.005 Goal=   None    Shift=    0.000
 RMSDP=8.10D-04 MaxDP=2.19D-01 DE= 1.11D+00 OVMax= 8.64D-01

 Cycle   8  Pass 1  IDiag  1:
 RMSU=  3.79D-04    CP:  1.00D+00  1.70D+00  1.38D-01  6.54D-01  3.57D-01
                    CP:  3.75D-01  1.21D-01
 E= -5263.18806820287     Delta-E=       -1.618031044049 Rises=F Damp=F
 DIIS: error= 1.62D-02 at cycle   8 NSaved=   8.
 NSaved= 8 IEnMin= 8 EnMin= -5263.18806820287     IErMin= 8 ErrMin= 1.62D-02
 ErrMax= 1.62D-02  0.00D+00 EMaxC= 1.00D-01 BMatC= 5.69D-01 BMatP= 2.35D+00
 IDIUse=3 WtCom= 8.38D-01 WtEn= 1.62D-01
 EnCoef did     6 forward-backward iterations
 Coeff-Com: -0.291D-01 0.401D-01 0.963D-02-0.604D-01 0.366D+00 0.225D+00
 Coeff-Com:  0.777D-01 0.371D+00
 Coeff-En:   0.000D+00 0.000D+00 0.000D+00 0.000D+00 0.318D+00 0.183D+00
 Coeff-En:   0.255D-01 0.473D+00
 Coeff:     -0.244D-01 0.336D-01 0.807D-02-0.506D-01 0.358D+00 0.219D+00
 Coeff:      0.693D-01 0.387D+00
 Gap=     0.175 Goal=   None    Shift=    0.000
 Gap=     0.018 Goal=   None    Shift=    0.000
 RMSDP=6.28D-04 MaxDP=1.79D-01 DE=-1.62D+00 OVMax= 8.23D-01

 Cycle   9  Pass 1  IDiag  1:
 RMSU=  3.48D-04    CP:  1.00D+00  1.59D+00  1.76D-01  5.56D-01  4.10D-01
                    CP:  4.83D-01  5.16D-01 -4.99D-02
 E= -5262.94660524031     Delta-E=        0.241462962556 Rises=F Damp=F
 DIIS: error= 2.75D-02 at cycle   9 NSaved=   9.
 NSaved= 9 IEnMin= 8 EnMin= -5263.18806820287     IErMin= 8 ErrMin= 1.62D-02
 ErrMax= 2.75D-02  0.00D+00 EMaxC= 1.00D-01 BMatC= 1.83D+00 BMatP= 5.69D-01
 IDIUse=2 WtCom= 0.00D+00 WtEn= 1.00D+00
 EnCoef did     3 forward-backward iterations
 Coeff-En:   0.000D+00 0.000D+00 0.000D+00 0.000D+00 0.205D+00 0.000D+00
 Coeff-En:   0.000D+00 0.529D+00 0.267D+00
 Coeff:      0.000D+00 0.000D+00 0.000D+00 0.000D+00 0.205D+00 0.000D+00
 Coeff:      0.000D+00 0.529D+00 0.267D+00
 Gap=     0.148 Goal=   None    Shift=    0.000
 Gap=     0.014 Goal=   None    Shift=    0.000
 RMSDP=6.91D-04 MaxDP=2.22D-01 DE= 2.41D-01 OVMax= 9.43D-01

 Cycle  10  Pass 1  IDiag  1:
 RMSU=  3.34D-04    CP:  1.00D+00  1.34D+00  1.85D-01  4.89D-01  4.97D-01
                    CP:  5.46D-01 -6.46D-02  6.74D-01  1.82D-01
 E= -5262.99950422103     Delta-E=       -0.052898980717 Rises=F Damp=F
 DIIS: error= 2.31D-02 at cycle  10 NSaved=  10.
 NSaved=10 IEnMin= 8 EnMin= -5263.18806820287     IErMin= 8 ErrMin= 1.62D-02
 ErrMax= 2.31D-02  0.00D+00 EMaxC= 1.00D-01 BMatC= 1.55D+00 BMatP= 5.69D-01
 IDIUse=2 WtCom= 0.00D+00 WtEn= 1.00D+00
 EnCoef did     5 forward-backward iterations
 Coeff-En:   0.000D+00 0.000D+00 0.000D+00 0.000D+00 0.190D+00 0.000D+00
 Coeff-En:   0.000D+00 0.419D+00 0.263D+00 0.129D+00
 Coeff:      0.000D+00 0.000D+00 0.000D+00 0.000D+00 0.190D+00 0.000D+00
 Coeff:      0.000D+00 0.419D+00 0.263D+00 0.129D+00
 Gap=     0.154 Goal=   None    Shift=    0.000
 Gap=     0.014 Goal=   None    Shift=    0.000
 RMSDP=6.04D-04 MaxDP=1.98D-01 DE=-5.29D-02 OVMax= 8.50D-01

 Cycle  11  Pass 1  IDiag  1:
 RMSU=  1.60D-04    CP:  1.00D+00  1.49D+00  1.70D-01  5.15D-01  7.56D-01
                    CP:  1.70D-01  1.53D-01  5.14D-01  5.20D-02 -2.77D-01
 E= -5263.16405632390     Delta-E=       -0.164552102871 Rises=F Damp=F
 DIIS: error= 1.32D-02 at cycle  11 NSaved=  11.
 NSaved=11 IEnMin= 8 EnMin= -5263.18806820287     IErMin=11 ErrMin= 1.32D-02
 ErrMax= 1.32D-02  0.00D+00 EMaxC= 1.00D-01 BMatC= 6.47D-01 BMatP= 5.69D-01
 IDIUse=2 WtCom= 0.00D+00 WtEn= 1.00D+00
 EnCoef did     4 forward-backward iterations
 Coeff-En:   0.000D+00 0.000D+00 0.000D+00 0.000D+00 0.000D+00 0.000D+00
 Coeff-En:   0.000D+00 0.284D+00 0.208D+00 0.145D+00 0.364D+00
 Coeff:      0.000D+00 0.000D+00 0.000D+00 0.000D+00 0.000D+00 0.000D+00
 Coeff:      0.000D+00 0.284D+00 0.208D+00 0.145D+00 0.364D+00
 Gap=     0.158 Goal=   None    Shift=    0.000
 Gap=     0.015 Goal=   None    Shift=    0.000
 RMSDP=5.10D-04 MaxDP=1.64D-01 DE=-1.65D-01 OVMax= 7.33D-01

 Cycle  12  Pass 1  IDiag  1:
 RMSU=  1.24D-04    CP:  1.00D+00  1.57D+00  1.64D-01  5.98D-01  3.90D-01
                    CP:  4.71D-01  2.92D-02  7.06D-01  2.96D-01  3.93D-01
                    CP: -7.08D-02
 E= -5263.21540183107     Delta-E=       -0.051345507176 Rises=F Damp=F
 DIIS: error= 1.61D-02 at cycle  12 NSaved=  12.
 NSaved=12 IEnMin=12 EnMin= -5263.21540183107     IErMin=11 ErrMin= 1.32D-02
 ErrMax= 1.61D-02  0.00D+00 EMaxC= 1.00D-01 BMatC= 4.18D-01 BMatP= 5.69D-01
 IDIUse=3 WtCom= 8.39D-01 WtEn= 1.61D-01
 EnCoef did     8 forward-backward iterations
 Coeff-Com:  0.409D-01-0.485D-01-0.347D-02 0.163D-01-0.807D-01-0.491D-01
 Coeff-Com: -0.256D-01 0.142D+00 0.186D+00-0.265D-01 0.433D+00 0.415D+00
 Coeff-En:   0.000D+00 0.000D+00 0.000D+00 0.000D+00 0.000D+00 0.000D+00
 Coeff-En:   0.000D+00 0.356D-01 0.130D+00 0.000D+00 0.385D+00 0.450D+00
 Coeff:      0.343D-01-0.407D-01-0.291D-02 0.137D-01-0.677D-01-0.412D-01
 Coeff:     -0.215D-01 0.125D+00 0.177D+00-0.222D-01 0.425D+00 0.421D+00
 Gap=     0.157 Goal=   None    Shift=    0.000
 Gap=     0.015 Goal=   None    Shift=    0.000
 RMSDP=2.53D-04 MaxDP=8.80D-02 DE=-5.13D-02 OVMax= 3.63D-01

 Cycle  13  Pass 1  IDiag  1:
 RMSU=  8.19D-05    CP:  1.00D+00  1.53D+00  1.55D-01  5.89D-01  4.52D-01
                    CP:  3.42D-01  1.59D-01  6.58D-01  4.18D-01 -9.56D-02
                    CP:  4.29D-01  8.24D-01
 E= -5263.28789280879     Delta-E=       -0.072490977716 Rises=F Damp=F
 DIIS: error= 2.61D-03 at cycle  13 NSaved=  13.
 NSaved=13 IEnMin=13 EnMin= -5263.28789280879     IErMin=13 ErrMin= 2.61D-03
 ErrMax= 2.61D-03  0.00D+00 EMaxC= 1.00D-01 BMatC= 1.49D-02 BMatP= 4.18D-01
 IDIUse=3 WtCom= 9.74D-01 WtEn= 2.61D-02
 EnCoef did   100 forward-backward iterations
 Coeff-Com:  0.324D-01-0.379D-01-0.251D-02 0.101D-01-0.356D-01-0.278D-01
 Coeff-Com: -0.175D-02-0.224D-01-0.383D-02-0.163D-01 0.179D+00 0.212D+00
 Coeff-Com:  0.715D+00
 Coeff-En:   0.000D+00 0.000D+00 0.000D+00 0.000D+00 0.000D+00 0.000D+00
 Coeff-En:   0.000D+00 0.000D+00 0.000D+00 0.842D-03 0.983D-01 0.758D-01
 Coeff-En:   0.825D+00
 Coeff:      0.316D-01-0.369D-01-0.245D-02 0.988D-02-0.347D-01-0.271D-01
 Coeff:     -0.171D-02-0.218D-01-0.373D-02-0.159D-01 0.177D+00 0.208D+00
 Coeff:      0.718D+00
 Gap=     0.161 Goal=   None    Shift=    0.000
 Gap=     0.017 Goal=   None    Shift=    0.000
 RMSDP=7.63D-05 MaxDP=2.14D-02 DE=-7.25D-02 OVMax= 1.02D-01

 Cycle  14  Pass 1  IDiag  1:
 RMSU=  3.61D-05    CP:  1.00D+00  1.52D+00  1.54D-01  5.84D-01  4.73D-01
                    CP:  3.22D-01  1.15D-01  7.32D-01  3.33D-01 -2.35D-02
                    CP:  4.54D-01  7.61D-01  7.05D-01
 E= -5263.28931663799     Delta-E=       -0.001423829202 Rises=F Damp=F
 DIIS: error= 1.83D-03 at cycle  14 NSaved=  14.
 NSaved=14 IEnMin=14 EnMin= -5263.28931663799     IErMin=14 ErrMin= 1.83D-03
 ErrMax= 1.83D-03  0.00D+00 EMaxC= 1.00D-01 BMatC= 7.18D-03 BMatP= 1.49D-02
 IDIUse=3 WtCom= 9.82D-01 WtEn= 1.83D-02
 EnCoef did     4 forward-backward iterations
 Coeff-Com:  0.215D-01-0.265D-01-0.930D-03 0.566D-02-0.154D-01-0.689D-02
 Coeff-Com: -0.890D-03-0.262D-01-0.106D-01-0.137D-01 0.805D-01 0.621D-01
 Coeff-Com:  0.508D+00 0.423D+00
 Coeff-En:   0.000D+00 0.000D+00 0.000D+00 0.000D+00 0.000D+00 0.000D+00
 Coeff-En:   0.000D+00 0.000D+00 0.000D+00 0.000D+00 0.164D-01 0.000D+00
 Coeff-En:   0.394D+00 0.589D+00
 Coeff:      0.211D-01-0.260D-01-0.913D-03 0.556D-02-0.151D-01-0.676D-02
 Coeff:     -0.874D-03-0.258D-01-0.104D-01-0.134D-01 0.794D-01 0.610D-01
 Coeff:      0.506D+00 0.426D+00
 Gap=     0.161 Goal=   None    Shift=    0.000
 Gap=     0.016 Goal=   None    Shift=    0.000
 RMSDP=3.84D-05 MaxDP=9.42D-03 DE=-1.42D-03 OVMax= 4.72D-02

 Cycle  15  Pass 1  IDiag  1:
 RMSU=  1.50D-05    CP:  1.00D+00  1.52D+00  1.55D-01  5.87D-01  4.62D-01
                    CP:  3.31D-01  1.32D-01  7.00D-01  3.72D-01 -5.77D-02
                    CP:  4.40D-01  7.82D-01  8.52D-01  4.95D-01
 E= -5263.29026791543     Delta-E=       -0.000951277438 Rises=F Damp=F
 DIIS: error= 8.53D-04 at cycle  15 NSaved=  15.
 NSaved=15 IEnMin=15 EnMin= -5263.29026791543     IErMin=15 ErrMin= 8.53D-04
 ErrMax= 8.53D-04  0.00D+00 EMaxC= 1.00D-01 BMatC= 2.21D-03 BMatP= 7.18D-03
 IDIUse=3 WtCom= 9.91D-01 WtEn= 8.53D-03
 EnCoef did     5 forward-backward iterations
 Coeff-Com:  0.834D-02-0.108D-01 0.178D-03 0.280D-02-0.919D-02-0.195D-02
 Coeff-Com: -0.334D-03-0.206D-01-0.498D-02 0.175D-02 0.453D-01-0.890D-02
 Coeff-Com:  0.253D+00 0.362D+00 0.383D+00
 Coeff-En:   0.000D+00 0.000D+00 0.000D+00 0.000D+00 0.000D+00 0.000D+00
 Coeff-En:   0.000D+00 0.000D+00 0.000D+00 0.000D+00 0.989D-02 0.000D+00
 Coeff-En:   0.603D-03 0.162D+00 0.827D+00
 Coeff:      0.827D-02-0.107D-01 0.177D-03 0.278D-02-0.911D-02-0.194D-02
 Coeff:     -0.331D-03-0.204D-01-0.494D-02 0.173D-02 0.450D-01-0.882D-02
 Coeff:      0.250D+00 0.361D+00 0.387D+00
 Gap=     0.161 Goal=   None    Shift=    0.000
 Gap=     0.016 Goal=   None    Shift=    0.000
 RMSDP=1.36D-05 MaxDP=3.26D-03 DE=-9.51D-04 OVMax= 1.39D-02

 Cycle  16  Pass 1  IDiag  1:
 RMSU=  6.77D-06    CP:  1.00D+00  1.52D+00  1.55D-01  5.85D-01  4.65D-01
                    CP:  3.27D-01  1.36D-01  6.87D-01  3.80D-01 -6.86D-02
                    CP:  4.68D-01  7.79D-01  8.85D-01  5.39D-01  5.96D-01
 E= -5263.29053366844     Delta-E=       -0.000265753006 Rises=F Damp=F
 DIIS: error= 5.88D-04 at cycle  16 NSaved=  16.
 NSaved=16 IEnMin=16 EnMin= -5263.29053366844     IErMin=16 ErrMin= 5.88D-04
 ErrMax= 5.88D-04  0.00D+00 EMaxC= 1.00D-01 BMatC= 7.87D-04 BMatP= 2.21D-03
 IDIUse=3 WtCom= 9.94D-01 WtEn= 5.88D-03
 Coeff-Com:  0.305D-02-0.410D-02 0.269D-03 0.626D-03-0.443D-02-0.148D-04
 Coeff-Com:  0.486D-03-0.121D-01-0.599D-02 0.191D-02 0.302D-01-0.873D-02
 Coeff-Com:  0.584D-01 0.178D+00 0.235D+00 0.527D+00
 Coeff-En:   0.000D+00 0.000D+00 0.000D+00 0.000D+00 0.000D+00 0.000D+00
 Coeff-En:   0.000D+00 0.000D+00 0.000D+00 0.000D+00 0.000D+00 0.000D+00
 Coeff-En:   0.000D+00 0.111D+00 0.000D+00 0.889D+00
 Coeff:      0.303D-02-0.408D-02 0.268D-03 0.622D-03-0.441D-02-0.147D-04
 Coeff:      0.483D-03-0.120D-01-0.596D-02 0.190D-02 0.300D-01-0.868D-02
 Coeff:      0.580D-01 0.178D+00 0.234D+00 0.529D+00
 Gap=     0.161 Goal=   None    Shift=    0.000
 Gap=     0.016 Goal=   None    Shift=    0.000
 RMSDP=9.30D-06 MaxDP=2.19D-03 DE=-2.66D-04 OVMax= 1.23D-02

 Cycle  17  Pass 1  IDiag  1:
 RMSU=  3.93D-06    CP:  1.00D+00  1.51D+00  1.55D-01  5.84D-01  4.71D-01
                    CP:  3.23D-01  1.33D-01  6.91D-01  3.71D-01 -7.00D-02
                    CP:  4.81D-01  7.60D-01  8.81D-01  6.12D-01  6.86D-01
                    CP:  9.07D-01
 E= -5263.29067472931     Delta-E=       -0.000141060878 Rises=F Damp=F
 DIIS: error= 1.81D-04 at cycle  17 NSaved=  17.
 NSaved=17 IEnMin=17 EnMin= -5263.29067472931     IErMin=17 ErrMin= 1.81D-04
 ErrMax= 1.81D-04  0.00D+00 EMaxC= 1.00D-01 BMatC= 8.59D-05 BMatP= 7.87D-04
 IDIUse=3 WtCom= 9.98D-01 WtEn= 1.81D-03
 Coeff-Com:  0.253D-03-0.329D-03 0.220D-03-0.302D-03-0.123D-02 0.357D-03
 Coeff-Com:  0.560D-03-0.251D-02-0.385D-02 0.458D-03 0.115D-01 0.922D-03
 Coeff-Com: -0.445D-01 0.142D-01 0.197D-01 0.298D+00 0.707D+00
 Coeff-En:   0.000D+00 0.000D+00 0.000D+00 0.000D+00 0.000D+00 0.000D+00
 Coeff-En:   0.000D+00 0.000D+00 0.000D+00 0.000D+00 0.000D+00 0.000D+00
 Coeff-En:   0.000D+00 0.000D+00 0.000D+00 0.000D+00 0.100D+01
 Coeff:      0.252D-03-0.329D-03 0.220D-03-0.302D-03-0.123D-02 0.356D-03
 Coeff:      0.559D-03-0.250D-02-0.384D-02 0.457D-03 0.115D-01 0.921D-03
 Coeff:     -0.444D-01 0.142D-01 0.196D-01 0.297D+00 0.707D+00
 Gap=     0.160 Goal=   None    Shift=    0.000
 Gap=     0.016 Goal=   None    Shift=    0.000
 RMSDP=5.40D-06 MaxDP=1.05D-03 DE=-1.41D-04 OVMax= 7.30D-03

 Cycle  18  Pass 1  IDiag  1:
 RMSU=  2.59D-06    CP:  1.00D+00  1.51D+00  1.55D-01  5.83D-01  4.73D-01
                    CP:  3.21D-01  1.32D-01  6.92D-01  3.67D-01 -7.05D-02
                    CP:  4.88D-01  7.53D-01  8.79D-01  6.53D-01  7.44D-01
                    CP:  1.22D+00  1.40D+00
 E= -5263.29069066021     Delta-E=       -0.000015930895 Rises=F Damp=F
 DIIS: error= 3.78D-05 at cycle  18 NSaved=  18.
 NSaved=18 IEnMin=18 EnMin= -5263.29069066021     IErMin=18 ErrMin= 3.78D-05
 ErrMax= 3.78D-05  0.00D+00 EMaxC= 1.00D-01 BMatC= 6.86D-06 BMatP= 8.59D-05
 IDIUse=1 WtCom= 1.00D+00 WtEn= 0.00D+00
 Coeff-Com:  0.157D-03-0.163D-03 0.361D-04-0.185D-03 0.178D-03 0.932D-04
 Coeff-Com:  0.168D-03 0.126D-02-0.959D-03-0.489D-04 0.354D-03 0.280D-02
 Coeff-Com: -0.321D-01-0.201D-01-0.360D-01 0.339D-01 0.466D+00 0.585D+00
 Coeff:      0.157D-03-0.163D-03 0.361D-04-0.185D-03 0.178D-03 0.932D-04
 Coeff:      0.168D-03 0.126D-02-0.959D-03-0.489D-04 0.354D-03 0.280D-02
 Coeff:     -0.321D-01-0.201D-01-0.360D-01 0.339D-01 0.466D+00 0.585D+00
 Gap=     0.160 Goal=   None    Shift=    0.000
 Gap=     0.016 Goal=   None    Shift=    0.000
 RMSDP=2.91D-06 MaxDP=4.57D-04 DE=-1.59D-05 OVMax= 4.12D-03

 Cycle  19  Pass 1  IDiag  1:
 RMSU=  1.51D-06    CP:  1.00D+00  1.51D+00  1.55D-01  5.83D-01  4.74D-01
                    CP:  3.21D-01  1.32D-01  6.93D-01  3.66D-01 -7.09D-02
                    CP:  4.90D-01  7.52D-01  8.78D-01  6.65D-01  7.96D-01
                    CP:  1.42D+00  1.83D+00  1.27D+00
 E= -5263.29069178251     Delta-E=       -0.000001122298 Rises=F Damp=F
 DIIS: error= 5.15D-05 at cycle  19 NSaved=  19.
 NSaved=19 IEnMin=19 EnMin= -5263.29069178251     IErMin=18 ErrMin= 3.78D-05
 ErrMax= 5.15D-05  0.00D+00 EMaxC= 1.00D-01 BMatC= 4.76D-06 BMatP= 6.86D-06
 IDIUse=1 WtCom= 1.00D+00 WtEn= 0.00D+00
 Coeff-Com:  0.250D-03-0.288D-03 0.578D-06-0.726D-04 0.178D-03-0.104D-03
 Coeff-Com:  0.524D-04 0.127D-02-0.167D-03 0.281D-03-0.124D-02 0.195D-02
 Coeff-Com: -0.167D-01-0.140D-01-0.232D-01-0.321D-02 0.241D+00 0.385D+00
 Coeff-Com:  0.429D+00
 Coeff:      0.250D-03-0.288D-03 0.578D-06-0.726D-04 0.178D-03-0.104D-03
 Coeff:      0.524D-04 0.127D-02-0.167D-03 0.281D-03-0.124D-02 0.195D-02
 Coeff:     -0.167D-01-0.140D-01-0.232D-01-0.321D-02 0.241D+00 0.385D+00
 Coeff:      0.429D+00
 Gap=     0.160 Goal=   None    Shift=    0.000
 Gap=     0.016 Goal=   None    Shift=    0.000
 RMSDP=1.84D-06 MaxDP=2.98D-04 DE=-1.12D-06 OVMax= 2.63D-03

 Cycle  20  Pass 1  IDiag  1:
 RMSU=  6.90D-07    CP:  1.00D+00  1.51D+00  1.55D-01  5.83D-01  4.74D-01
                    CP:  3.21D-01  1.31D-01  6.93D-01  3.66D-01 -6.99D-02
                    CP:  4.90D-01  7.50D-01  8.77D-01  6.77D-01  8.25D-01
                    CP:  1.52D+00  2.07D+00  1.55D+00  1.31D+00
 E= -5263.29069264812     Delta-E=       -0.000000865613 Rises=F Damp=F
 DIIS: error= 3.28D-05 at cycle  20 NSaved=  20.
 NSaved=20 IEnMin=20 EnMin= -5263.29069264812     IErMin=20 ErrMin= 3.28D-05
 ErrMax= 3.28D-05  0.00D+00 EMaxC= 1.00D-01 BMatC= 3.06D-06 BMatP= 4.76D-06
 IDIUse=1 WtCom= 1.00D+00 WtEn= 0.00D+00
 Coeff-Com:  0.363D-03-0.420D-03 0.271D-05-0.408D-04 0.196D-03-0.405D-04
 Coeff-Com: -0.877D-05 0.464D-03 0.265D-03-0.518D-05-0.160D-02 0.561D-03
 Coeff-Com: -0.239D-02-0.269D-02-0.702D-03-0.110D-02 0.395D-01 0.836D-01
 Coeff-Com:  0.291D+00 0.593D+00
 Coeff:      0.363D-03-0.420D-03 0.271D-05-0.408D-04 0.196D-03-0.405D-04
 Coeff:     -0.877D-05 0.464D-03 0.265D-03-0.518D-05-0.160D-02 0.561D-03
 Coeff:     -0.239D-02-0.269D-02-0.702D-03-0.110D-02 0.395D-01 0.836D-01
 Coeff:      0.291D+00 0.593D+00
 Gap=     0.160 Goal=   None    Shift=    0.000
 Gap=     0.016 Goal=   None    Shift=    0.000
 RMSDP=2.19D-06 MaxDP=3.83D-04 DE=-8.66D-07 OVMax= 3.21D-03

 Cycle  21  Pass 1  IDiag  1:
 Restarting incremental Fock formation.
 E= -5263.29069351732     Delta-E=       -0.000000869195 Rises=F Damp=F
 DIIS: error= 2.37D-05 at cycle  21 NSaved=  20.
 NSaved=20 IEnMin=20 EnMin= -5263.29069351732     IErMin=20 ErrMin= 2.37D-05
 ErrMax= 2.37D-05  0.00D+00 EMaxC= 1.00D-01 BMatC= 1.57D-06 BMatP= 3.06D-06
 IDIUse=1 WtCom= 1.00D+00 WtEn= 0.00D+00
 Coeff-Com:  0.337D-03-0.369D-03-0.527D-04 0.254D-03 0.385D-04-0.109D-04
 Coeff-Com: -0.415D-03 0.353D-03-0.434D-03-0.125D-02-0.419D-04 0.566D-02
 Coeff-Com:  0.168D-02 0.103D-01 0.123D-01-0.887D-01-0.162D+00-0.894D-01
 Coeff-Com:  0.305D+00 0.101D+01
 Coeff:      0.337D-03-0.369D-03-0.527D-04 0.254D-03 0.385D-04-0.109D-04
 Coeff:     -0.415D-03 0.353D-03-0.434D-03-0.125D-02-0.419D-04 0.566D-02
 Coeff:      0.168D-02 0.103D-01 0.123D-01-0.887D-01-0.162D+00-0.894D-01
 Coeff:      0.305D+00 0.101D+01
 Gap=     0.160 Goal=   None    Shift=    0.000
 Gap=     0.016 Goal=   None    Shift=    0.000
 RMSDP=3.95D-06 MaxDP=7.05D-04 DE=-8.69D-07 OVMax= 5.84D-03

 Cycle  22  Pass 1  IDiag  1:
 RMSU=  3.95D-06    CP:  1.00D+00
 E= -5263.29069439658     Delta-E=       -0.000000879261 Rises=F Damp=F
 DIIS: error= 2.66D-05 at cycle  22 NSaved=  20.
 NSaved=20 IEnMin=20 EnMin= -5263.29069439658     IErMin=19 ErrMin= 2.37D-05
 ErrMax= 2.66D-05  0.00D+00 EMaxC= 1.00D-01 BMatC= 1.79D-06 BMatP= 1.57D-06
 IDIUse=1 WtCom= 1.00D+00 WtEn= 0.00D+00
 Coeff-Com:  0.438D-05 0.846D-05 0.964D-05-0.124D-04 0.367D-04-0.111D-02
 Coeff-Com:  0.964D-04-0.114D-03 0.347D-03-0.405D-03 0.627D-02-0.429D-02
 Coeff-Com:  0.151D-03 0.287D-01-0.602D-01-0.195D+00-0.478D+00-0.106D+01
 Coeff-Com:  0.102D+01 0.175D+01
 Coeff:      0.438D-05 0.846D-05 0.964D-05-0.124D-04 0.367D-04-0.111D-02
 Coeff:      0.964D-04-0.114D-03 0.347D-03-0.405D-03 0.627D-02-0.429D-02
 Coeff:      0.151D-03 0.287D-01-0.602D-01-0.195D+00-0.478D+00-0.106D+01
 Coeff:      0.102D+01 0.175D+01
 Gap=     0.160 Goal=   None    Shift=    0.000
 Gap=     0.016 Goal=   None    Shift=    0.000
 RMSDP=1.01D-05 MaxDP=1.81D-03 DE=-8.79D-07 OVMax= 1.49D-02

 Cycle  23  Pass 1  IDiag  1:
 RMSU=  2.25D-06    CP:  1.00D+00  3.00D+00
 E= -5263.29069606810     Delta-E=       -0.000001671518 Rises=F Damp=F
 DIIS: error= 2.72D-05 at cycle  23 NSaved=  20.
 NSaved=20 IEnMin=20 EnMin= -5263.29069606810     IErMin=18 ErrMin= 2.37D-05
 ErrMax= 2.72D-05  0.00D+00 EMaxC= 1.00D-01 BMatC= 1.81D-06 BMatP= 1.57D-06
 IDIUse=1 WtCom= 1.00D+00 WtEn= 0.00D+00
 Coeff-Com: -0.376D-04 0.348D-04-0.486D-05 0.183D-04-0.568D-03 0.253D-04
 Coeff-Com:  0.808D-05 0.290D-03-0.532D-04 0.147D-02-0.762D-02-0.775D-02
 Coeff-Com:  0.246D-01 0.222D-01-0.638D-01-0.367D+00-0.120D+01 0.390D+00
 Coeff-Com:  0.155D+01 0.656D+00
 Coeff:     -0.376D-04 0.348D-04-0.486D-05 0.183D-04-0.568D-03 0.253D-04
 Coeff:      0.808D-05 0.290D-03-0.532D-04 0.147D-02-0.762D-02-0.775D-02
 Coeff:      0.246D-01 0.222D-01-0.638D-01-0.367D+00-0.120D+01 0.390D+00
 Coeff:      0.155D+01 0.656D+00
 Gap=     0.160 Goal=   None    Shift=    0.000
 Gap=     0.016 Goal=   None    Shift=    0.000
 RMSDP=6.14D-06 MaxDP=1.12D-03 DE=-1.67D-06 OVMax= 9.07D-03

 Cycle  24  Pass 1  IDiag  1:
 RMSU=  2.18D-06    CP:  1.00D+00  3.00D+00  3.00D+00
 E= -5263.29069663022     Delta-E=       -0.000000562124 Rises=F Damp=F
 DIIS: error= 2.73D-05 at cycle  24 NSaved=  20.
 NSaved=20 IEnMin=20 EnMin= -5263.29069663022     IErMin=17 ErrMin= 2.37D-05
 ErrMax= 2.73D-05  0.00D+00 EMaxC= 1.00D-01 BMatC= 1.53D-06 BMatP= 1.57D-06
 IDIUse=1 WtCom= 1.00D+00 WtEn= 0.00D+00
 Coeff-Com:  0.417D-06 0.589D-05 0.181D-04-0.123D-03 0.498D-04 0.333D-04
 Coeff-Com:  0.703D-06 0.419D-06-0.271D-02-0.663D-02-0.859D-02 0.148D-01
 Coeff-Com:  0.846D-01 0.677D-01-0.127D+00-0.831D+00-0.143D+00 0.816D+00
 Coeff-Com:  0.571D+00 0.565D+00
 Coeff:      0.417D-06 0.589D-05 0.181D-04-0.123D-03 0.498D-04 0.333D-04
 Coeff:      0.703D-06 0.419D-06-0.271D-02-0.663D-02-0.859D-02 0.148D-01
 Coeff:      0.846D-01 0.677D-01-0.127D+00-0.831D+00-0.143D+00 0.816D+00
 Coeff:      0.571D+00 0.565D+00
 Gap=     0.160 Goal=   None    Shift=    0.000
 Gap=     0.015 Goal=   None    Shift=    0.000
 RMSDP=3.74D-06 MaxDP=6.84D-04 DE=-5.62D-07 OVMax= 5.51D-03

 Cycle  25  Pass 1  IDiag  1:
 RMSU=  2.28D-06    CP:  1.00D+00  3.00D+00  3.00D+00  2.36D+00
 E= -5263.29069700559     Delta-E=       -0.000000375374 Rises=F Damp=F
 DIIS: error= 9.83D-06 at cycle  25 NSaved=  20.
 NSaved=20 IEnMin=20 EnMin= -5263.29069700559     IErMin=20 ErrMin= 9.83D-06
 ErrMax= 9.83D-06  0.00D+00 EMaxC= 1.00D-01 BMatC= 2.23D-07 BMatP= 1.53D-06
 IDIUse=1 WtCom= 1.00D+00 WtEn= 0.00D+00
 Coeff-Com: -0.749D-05 0.184D-06 0.109D-04 0.449D-04 0.127D-03 0.122D-04
 Coeff-Com: -0.193D-03-0.261D-02-0.207D-02-0.269D-02 0.668D-02 0.676D-01
 Coeff-Com:  0.795D-01 0.403D-01-0.219D+00-0.216D+00 0.886D-01 0.159D+00
 Coeff-Com:  0.318D+00 0.683D+00
 Coeff:     -0.749D-05 0.184D-06 0.109D-04 0.449D-04 0.127D-03 0.122D-04
 Coeff:     -0.193D-03-0.261D-02-0.207D-02-0.269D-02 0.668D-02 0.676D-01
 Coeff:      0.795D-01 0.403D-01-0.219D+00-0.216D+00 0.886D-01 0.159D+00
 Coeff:      0.318D+00 0.683D+00
 Gap=     0.160 Goal=   None    Shift=    0.000
 Gap=     0.015 Goal=   None    Shift=    0.000
 RMSDP=7.24D-07 MaxDP=1.26D-04 DE=-3.75D-07 OVMax= 1.05D-03

 Cycle  26  Pass 1  IDiag  1:
 RMSU=  3.08D-07    CP:  1.00D+00  3.00D+00  3.00D+00  2.56D+00  1.22D+00
 E= -5263.29069705269     Delta-E=       -0.000000047101 Rises=F Damp=F
 DIIS: error= 4.19D-06 at cycle  26 NSaved=  20.
 NSaved=20 IEnMin=20 EnMin= -5263.29069705269     IErMin=20 ErrMin= 4.19D-06
 ErrMax= 4.19D-06  0.00D+00 EMaxC= 1.00D-01 BMatC= 5.07D-08 BMatP= 2.23D-07
 IDIUse=1 WtCom= 1.00D+00 WtEn= 0.00D+00
 Coeff-Com:  0.328D-05 0.437D-04-0.527D-05 0.721D-04 0.194D-04-0.633D-04
 Coeff-Com: -0.722D-03 0.514D-03 0.120D-02-0.471D-04 0.132D-01 0.197D-01
 Coeff-Com:  0.533D-01 0.119D+00-0.554D-01-0.188D+00-0.597D-01 0.367D-01
 Coeff-Com:  0.452D+00 0.608D+00
 Coeff:      0.328D-05 0.437D-04-0.527D-05 0.721D-04 0.194D-04-0.633D-04
 Coeff:     -0.722D-03 0.514D-03 0.120D-02-0.471D-04 0.132D-01 0.197D-01
 Coeff:      0.533D-01 0.119D+00-0.554D-01-0.188D+00-0.597D-01 0.367D-01
 Coeff:      0.452D+00 0.608D+00
 Gap=     0.160 Goal=   None    Shift=    0.000
 Gap=     0.015 Goal=   None    Shift=    0.000
 RMSDP=3.70D-07 MaxDP=5.98D-05 DE=-4.71D-08 OVMax= 5.37D-04

 Cycle  27  Pass 1  IDiag  1:
 RMSU=  1.54D-07    CP:  1.00D+00  3.00D+00  3.00D+00  2.44D+00  1.16D+00
                    CP:  1.50D+00
 E= -5263.29069705317     Delta-E=       -0.000000000480 Rises=F Damp=F
 DIIS: error= 5.01D-06 at cycle  27 NSaved=  20.
 NSaved=20 IEnMin=20 EnMin= -5263.29069705317     IErMin=19 ErrMin= 4.19D-06
 ErrMax= 5.01D-06  0.00D+00 EMaxC= 1.00D-01 BMatC= 5.56D-08 BMatP= 5.07D-08
 IDIUse=1 WtCom= 1.00D+00 WtEn= 0.00D+00
 Coeff-Com:  0.685D-04-0.243D-04-0.172D-04 0.189D-04 0.100D-03-0.210D-03
 Coeff-Com:  0.495D-03 0.866D-03-0.316D-02-0.630D-02-0.232D-02 0.219D-01
 Coeff-Com:  0.117D+00-0.101D-01-0.139D+00-0.550D-01 0.829D-02 0.118D+00
 Coeff-Com:  0.353D+00 0.597D+00
 Coeff:      0.685D-04-0.243D-04-0.172D-04 0.189D-04 0.100D-03-0.210D-03
 Coeff:      0.495D-03 0.866D-03-0.316D-02-0.630D-02-0.232D-02 0.219D-01
 Coeff:      0.117D+00-0.101D-01-0.139D+00-0.550D-01 0.829D-02 0.118D+00
 Coeff:      0.353D+00 0.597D+00
 Gap=     0.160 Goal=   None    Shift=    0.000
 Gap=     0.015 Goal=   None    Shift=    0.000
 RMSDP=3.88D-07 MaxDP=7.10D-05 DE=-4.80D-10 OVMax= 5.73D-04

 Cycle  28  Pass 1  IDiag  1:
 RMSU=  9.89D-08    CP:  1.00D+00  3.00D+00  3.00D+00  2.58D+00  1.24D+00
                    CP:  1.56D+00  1.67D+00
 E= -5263.29069706629     Delta-E=       -0.000000013117 Rises=F Damp=F
 DIIS: error= 2.07D-06 at cycle  28 NSaved=  20.
 NSaved=20 IEnMin=20 EnMin= -5263.29069706629     IErMin=20 ErrMin= 2.07D-06
 ErrMax= 2.07D-06  0.00D+00 EMaxC= 1.00D-01 BMatC= 1.20D-08 BMatP= 5.07D-08
 IDIUse=1 WtCom= 1.00D+00 WtEn= 0.00D+00
 Coeff-Com:  0.388D-04-0.231D-04 0.253D-04-0.198D-04-0.254D-03 0.357D-03
 Coeff-Com: -0.226D-03-0.187D-02 0.243D-02 0.107D-01 0.185D-01 0.428D-01
 Coeff-Com: -0.565D-01-0.609D-01 0.121D-01 0.486D-01-0.644D-01-0.177D+00
 Coeff-Com:  0.349D-01 0.119D+01
 Coeff:      0.388D-04-0.231D-04 0.253D-04-0.198D-04-0.254D-03 0.357D-03
 Coeff:     -0.226D-03-0.187D-02 0.243D-02 0.107D-01 0.185D-01 0.428D-01
 Coeff:     -0.565D-01-0.609D-01 0.121D-01 0.486D-01-0.644D-01-0.177D+00
 Coeff:      0.349D-01 0.119D+01
 Gap=     0.160 Goal=   None    Shift=    0.000
 Gap=     0.015 Goal=   None    Shift=    0.000
 RMSDP=3.95D-07 MaxDP=6.86D-05 DE=-1.31D-08 OVMax= 5.85D-04

 Cycle  29  Pass 1  IDiag  1:
 RMSU=  4.39D-08    CP:  1.00D+00  3.00D+00  3.00D+00  2.70D+00  1.34D+00
                    CP:  1.90D+00  2.51D+00  1.84D+00
 E= -5263.29069706981     Delta-E=       -0.000000003514 Rises=F Damp=F
 DIIS: error= 1.89D-06 at cycle  29 NSaved=  20.
 NSaved=20 IEnMin=20 EnMin= -5263.29069706981     IErMin=20 ErrMin= 1.89D-06
 ErrMax= 1.89D-06  0.00D+00 EMaxC= 1.00D-01 BMatC= 1.04D-08 BMatP= 1.20D-08
 IDIUse=1 WtCom= 1.00D+00 WtEn= 0.00D+00
 Coeff-Com:  0.229D-04 0.367D-04-0.854D-04-0.296D-03 0.274D-03-0.436D-03
 Coeff-Com: -0.559D-03 0.731D-02 0.157D-01 0.214D-01 0.157D-01-0.650D-01
 Coeff-Com: -0.323D-01 0.295D-01 0.480D-01-0.695D-01-0.254D+00-0.203D+00
 Coeff-Com:  0.875D+00 0.612D+00
 Coeff:      0.229D-04 0.367D-04-0.854D-04-0.296D-03 0.274D-03-0.436D-03
 Coeff:     -0.559D-03 0.731D-02 0.157D-01 0.214D-01 0.157D-01-0.650D-01
 Coeff:     -0.323D-01 0.295D-01 0.480D-01-0.695D-01-0.254D+00-0.203D+00
 Coeff:      0.875D+00 0.612D+00
 Gap=     0.160 Goal=   None    Shift=    0.000
 Gap=     0.015 Goal=   None    Shift=    0.000
 RMSDP=1.30D-07 MaxDP=1.99D-05 DE=-3.51D-09 OVMax= 1.90D-04

 Cycle  30  Pass 1  IDiag  1:
 RMSU=  2.72D-08    CP:  1.00D+00  3.00D+00  3.00D+00  2.70D+00  1.35D+00
                    CP:  2.15D+00  3.00D+00  2.33D+00  1.62D+00
 E= -5263.29069707183     Delta-E=       -0.000000002026 Rises=F Damp=F
 DIIS: error= 1.56D-06 at cycle  30 NSaved=  20.
 NSaved=20 IEnMin=20 EnMin= -5263.29069707183     IErMin=20 ErrMin= 1.56D-06
 ErrMax= 1.56D-06  0.00D+00 EMaxC= 1.00D-01 BMatC= 5.90D-09 BMatP= 1.04D-08
 IDIUse=1 WtCom= 1.00D+00 WtEn= 0.00D+00
 Coeff-Com:  0.631D-05-0.482D-04-0.144D-04-0.796D-04-0.420D-03-0.352D-03
 Coeff-Com:  0.188D-02 0.415D-02 0.601D-02-0.128D-01-0.238D-01 0.133D-01
 Coeff-Com:  0.327D-01 0.293D-01-0.571D-01-0.151D+00-0.174D+00 0.343D-01
 Coeff-Com:  0.509D+00 0.789D+00
 Coeff:      0.631D-05-0.482D-04-0.144D-04-0.796D-04-0.420D-03-0.352D-03
 Coeff:      0.188D-02 0.415D-02 0.601D-02-0.128D-01-0.238D-01 0.133D-01
 Coeff:      0.327D-01 0.293D-01-0.571D-01-0.151D+00-0.174D+00 0.343D-01
 Coeff:      0.509D+00 0.789D+00
 Gap=     0.160 Goal=   None    Shift=    0.000
 Gap=     0.015 Goal=   None    Shift=    0.000
 RMSDP=1.53D-07 MaxDP=2.25D-05 DE=-2.03D-09 OVMax= 2.25D-04

 Cycle  31  Pass 1  IDiag  1:
 RMSU=  9.48D-08    CP:  1.00D+00  3.00D+00  3.00D+00  2.73D+00  1.37D+00
                    CP:  2.34D+00  3.00D+00  3.00D+00  2.52D+00  1.66D+00
 E= -5263.29069707364     Delta-E=       -0.000000001806 Rises=F Damp=F
 DIIS: error= 3.22D-07 at cycle  31 NSaved=  20.
 NSaved=20 IEnMin=20 EnMin= -5263.29069707364     IErMin=20 ErrMin= 3.22D-07
 ErrMax= 3.22D-07  0.00D+00 EMaxC= 1.00D-01 BMatC= 4.07D-10 BMatP= 5.90D-09
 IDIUse=1 WtCom= 1.00D+00 WtEn= 0.00D+00
 Coeff-Com: -0.346D-05 0.228D-04-0.198D-03-0.234D-03 0.199D-03-0.280D-03
 Coeff-Com: -0.154D-02-0.246D-02-0.180D-01 0.278D-02 0.226D-01 0.152D-01
 Coeff-Com:  0.448D-02-0.159D-01-0.201D-01-0.628D-01-0.282D+00 0.153D+00
 Coeff-Com:  0.592D+00 0.613D+00
 Coeff:     -0.346D-05 0.228D-04-0.198D-03-0.234D-03 0.199D-03-0.280D-03
 Coeff:     -0.154D-02-0.246D-02-0.180D-01 0.278D-02 0.226D-01 0.152D-01
 Coeff:      0.448D-02-0.159D-01-0.201D-01-0.628D-01-0.282D+00 0.153D+00
 Coeff:      0.592D+00 0.613D+00
 Gap=     0.160 Goal=   None    Shift=    0.000
 Gap=     0.015 Goal=   None    Shift=    0.000
 RMSDP=8.17D-08 MaxDP=1.25D-05 DE=-1.81D-09 OVMax= 1.20D-04

 Cycle  32  Pass 1  IDiag  1:
 RMSU=  3.15D-08    CP:  1.00D+00  3.00D+00  3.00D+00  2.74D+00  1.38D+00
                    CP:  2.45D+00  3.00D+00  3.00D+00  3.00D+00  2.21D+00
                    CP:  1.44D+00
 E= -5263.29069707390     Delta-E=       -0.000000000266 Rises=F Damp=F
 DIIS: error= 3.07D-07 at cycle  32 NSaved=  20.
 NSaved=20 IEnMin=20 EnMin= -5263.29069707390     IErMin=20 ErrMin= 3.07D-07
 ErrMax= 3.07D-07  0.00D+00 EMaxC= 1.00D-01 BMatC= 2.38D-10 BMatP= 4.07D-10
 IDIUse=1 WtCom= 1.00D+00 WtEn= 0.00D+00
 Coeff-Com: -0.262D-04-0.515D-04-0.401D-04 0.242D-03 0.206D-04-0.582D-03
 Coeff-Com: -0.156D-02-0.524D-02 0.269D-02 0.636D-02 0.102D-02-0.495D-02
 Coeff-Com: -0.673D-02 0.699D-02 0.335D-02-0.799D-01-0.274D-01 0.892D-01
 Coeff-Com:  0.294D+00 0.722D+00
 Coeff:     -0.262D-04-0.515D-04-0.401D-04 0.242D-03 0.206D-04-0.582D-03
 Coeff:     -0.156D-02-0.524D-02 0.269D-02 0.636D-02 0.102D-02-0.495D-02
 Coeff:     -0.673D-02 0.699D-02 0.335D-02-0.799D-01-0.274D-01 0.892D-01
 Coeff:      0.294D+00 0.722D+00
 Gap=     0.160 Goal=   None    Shift=    0.000
 Gap=     0.015 Goal=   None    Shift=    0.000
 RMSDP=4.33D-08 MaxDP=5.94D-06 DE=-2.66D-10 OVMax= 6.37D-05

 Cycle  33  Pass 1  IDiag  1:
 RMSU=  1.37D-08    CP:  1.00D+00  3.00D+00  3.00D+00  2.75D+00  1.39D+00
                    CP:  2.51D+00  3.00D+00  3.00D+00  3.00D+00  2.45D+00
                    CP:  1.59D+00  1.36D+00
 E= -5263.29069707408     Delta-E=       -0.000000000171 Rises=F Damp=F
 DIIS: error= 1.26D-07 at cycle  33 NSaved=  20.
 NSaved=20 IEnMin=20 EnMin= -5263.29069707408     IErMin=20 ErrMin= 1.26D-07
 ErrMax= 1.26D-07  0.00D+00 EMaxC= 1.00D-01 BMatC= 6.73D-11 BMatP= 2.38D-10
 IDIUse=1 WtCom= 1.00D+00 WtEn= 0.00D+00
 Coeff-Com:  0.584D-04 0.105D-03 0.127D-03-0.213D-03-0.484D-03-0.209D-02
 Coeff-Com:  0.153D-02 0.412D-02-0.942D-03-0.689D-02-0.790D-02-0.201D-02
 Coeff-Com:  0.117D-01 0.376D-01 0.986D-01-0.104D+00-0.264D+00-0.109D+00
 Coeff-Com:  0.582D+00 0.762D+00
 Coeff:      0.584D-04 0.105D-03 0.127D-03-0.213D-03-0.484D-03-0.209D-02
 Coeff:      0.153D-02 0.412D-02-0.942D-03-0.689D-02-0.790D-02-0.201D-02
 Coeff:      0.117D-01 0.376D-01 0.986D-01-0.104D+00-0.264D+00-0.109D+00
 Coeff:      0.582D+00 0.762D+00
 Gap=     0.160 Goal=   None    Shift=    0.000
 Gap=     0.015 Goal=   None    Shift=    0.000
 RMSDP=3.46D-08 MaxDP=5.96D-06 DE=-1.71D-10 OVMax= 5.09D-05

 Cycle  34  Pass 1  IDiag  1:
 RMSU=  5.89D-09    CP:  1.00D+00  3.00D+00  3.00D+00  2.76D+00  1.40D+00
                    CP:  2.55D+00  3.00D+00  3.00D+00  3.00D+00  2.72D+00
                    CP:  1.77D+00  1.81D+00  1.95D+00
 E= -5263.29069707411     Delta-E=       -0.000000000033 Rises=F Damp=F
 DIIS: error= 1.00D-07 at cycle  34 NSaved=  20.
 NSaved=20 IEnMin=20 EnMin= -5263.29069707411     IErMin=20 ErrMin= 1.00D-07
 ErrMax= 1.00D-07  0.00D+00 EMaxC= 1.00D-01 BMatC= 2.90D-11 BMatP= 6.73D-11
 IDIUse=1 WtCom= 1.00D+00 WtEn= 0.00D+00
 Coeff-Com:  0.393D-04 0.159D-03-0.786D-04-0.611D-03-0.275D-02-0.244D-02
 Coeff-Com:  0.480D-02 0.404D-02-0.306D-02-0.320D-02-0.843D-03 0.360D-04
 Coeff-Com:  0.159D-01 0.773D-01-0.458D-01-0.188D+00-0.165D+00 0.124D+00
 Coeff-Com:  0.512D+00 0.674D+00
[...]
 RMSDP=1.27D-08 MaxDP=1.23D-07 DE=-6.99D-12 OVMax= 1.55D-07

 Cycle  11  Pass 1  IDiag  1:
 E= -76.4431250400426     Delta-E=       -0.000000000000 Rises=F Damp=F
 DIIS: error= 1.68D-08 at cycle   6 NSaved=   6.
 NSaved= 6 IEnMin= 6 EnMin= -76.4431250400426     IErMin= 6 ErrMin= 1.68D-08
 ErrMax= 1.68D-08  0.00D+00 EMaxC= 1.00D-01 BMatC= 2.94D-14 BMatP= 1.41D-12
 IDIUse=1 WtCom= 1.00D+00 WtEn= 0.00D+00
 Coeff-Com:  0.783D-04-0.859D-03-0.309D-02-0.318D-01-0.541D-01 0.109D+01
 Coeff:      0.783D-04-0.859D-03-0.309D-02-0.318D-01-0.541D-01 0.109D+01
 Gap=     0.300 Goal=   None    Shift=    0.000
 Gap=     0.300 Goal=   None    Shift=    0.000
 RMSDP=3.11D-09 MaxDP=3.44D-08 DE=-1.99D-13 OVMax= 2.46D-08

 SCF Done:  E(UM06L) =  -76.4431250400     A.U. after   11 cycles
            NFock= 11  Conv=0.31D-08     -V/T= 2.0034
 <Sx>= 0.0000 <Sy>= 0.0000 <Sz>= 0.0000 <S**2>= 0.0000 S= 0.0000
 <L.S>=  0.00000000000    
 KE= 7.618782537825D+01 PE=-1.991186687182D+02 EE= 3.740242766655D+01
 Annihilation of the first spin contaminant:
 S**2 before annihilation     0.0000,   after    -0.0000
 Leave Link  502 at Mon Jan 30 15:04:17 2023, MaxMem= 14763950080 cpu:               4.0 elap:               2.3
 (Enter /software/commercial/gaussian/g16/AVX2/g16/l508.exe)
 QCSCF skips out because SCF is already converged.
 Leave Link  508 at Mon Jan 30 15:04:18 2023, MaxMem= 14763950080 cpu:               0.0 elap:               0.0
 (Enter /software/commercial/gaussian/g16/AVX2/g16/l601.exe)
 Copying SCF densities to generalized density rwf, IOpCl= 1 IROHF=0.

 **********************************************************************

            Population analysis using the SCF Density.

 **********************************************************************

 Alpha  occ. eigenvalues --  -18.96285  -0.98007  -0.48806  -0.34767  -0.26776
 Alpha virt. eigenvalues --    0.03202   0.09705   0.35050   0.39461   0.43660
 Alpha virt. eigenvalues --    0.44025   0.56399   0.57224   1.16354   1.18990
 Alpha virt. eigenvalues --    1.30095   1.52945   1.64798   1.76670   2.01427
 Alpha virt. eigenvalues --    2.09103   2.12742   2.32246   2.41817   2.62572
 Alpha virt. eigenvalues --    2.64909   2.69073   2.84239   3.73133   4.01007
 Alpha virt. eigenvalues --    5.23097   5.32824   5.50638   5.52182   5.57949
 Alpha virt. eigenvalues --    6.12478   6.32219   6.42745   6.48907   6.54834
 Alpha virt. eigenvalues --    7.04907   7.14071  43.44210
  Beta  occ. eigenvalues --  -18.96285  -0.98007  -0.48806  -0.34767  -0.26776
  Beta virt. eigenvalues --    0.03202   0.09705   0.35050   0.39461   0.43660
  Beta virt. eigenvalues --    0.44025   0.56399   0.57224   1.16354   1.18990
  Beta virt. eigenvalues --    1.30095   1.52945   1.64798   1.76670   2.01427
  Beta virt. eigenvalues --    2.09103   2.12742   2.32246   2.41817   2.62572
  Beta virt. eigenvalues --    2.64909   2.69073   2.84239   3.73133   4.01007
  Beta virt. eigenvalues --    5.23097   5.32824   5.50638   5.52182   5.57949
  Beta virt. eigenvalues --    6.12478   6.32219   6.42745   6.48907   6.54834
  Beta virt. eigenvalues --    7.04907   7.14071  43.44210
          Condensed to atoms (all electrons):
              32         33         34
    32  O    8.059222   0.288775   0.288910
    33  H    0.288775   0.409877  -0.017141
    34  H    0.288910  -0.017141   0.409813
          Atomic-Atomic Spin Densities.
              32         33         34
    32  O    0.000000   0.000000   0.000000
    33  H    0.000000   0.000000   0.000000
    34  H    0.000000   0.000000   0.000000
 Mulliken charges and spin densities:
               1          2
     1  O    0.000000   0.000000
     2  O    0.000000   0.000000
     3  C    0.000000   0.000000
     4  H    0.000000   0.000000
     5  O    0.000000   0.000000
     6  O    0.000000   0.000000
     7  C    0.000000   0.000000
     8  H    0.000000   0.000000
     9  O    0.000000   0.000000
    10  O    0.000000   0.000000
    11  O    0.000000   0.000000
    12  C    0.000000   0.000000
    13  H    0.000000   0.000000
    14  O    0.000000   0.000000
    15  O    0.000000   0.000000
    16  C    0.000000   0.000000
    17  H    0.000000   0.000000
    18  Fe   0.000000   0.000000
    19  O    0.000000   0.000000
    20  Fe   0.000000   0.000000
    21  O    0.000000   0.000000
    22  O    0.000000   0.000000
    23  Fe   0.000000   0.000000
    24  O    0.000000   0.000000
    25  C    0.000000   0.000000
    26  H    0.000000   0.000000
    27  C    0.000000   0.000000
    28  H    0.000000   0.000000
    29  N    0.000000   0.000000
    30  N    0.000000   0.000000
    31  O    0.000000   0.000000
    32  O   -0.636907   0.000000
    33  H    0.318489   0.000000
    34  H    0.318418   0.000000
 Sum of Mulliken charges =   0.00000   0.00000
 Mulliken charges and spin densities with hydrogens summed into heavy atoms:
               1          2
     1  O    0.000000   0.000000
     2  O    0.000000   0.000000
     3  C    0.000000   0.000000
     5  O    0.000000   0.000000
     6  O    0.000000   0.000000
     7  C    0.000000   0.000000
     9  O    0.000000   0.000000
    10  O    0.000000   0.000000
    11  O    0.000000   0.000000
    12  C    0.000000   0.000000
    14  O    0.000000   0.000000
    15  O    0.000000   0.000000
    16  C    0.000000   0.000000
    18  Fe   0.000000   0.000000
    19  O    0.000000   0.000000
    20  Fe   0.000000   0.000000
    21  O    0.000000   0.000000
    22  O    0.000000   0.000000
    23  Fe   0.000000   0.000000
    24  O    0.000000   0.000000
    25  C    0.000000   0.000000
    27  C    0.000000   0.000000
    29  N    0.000000   0.000000
    30  N    0.000000   0.000000
    31  O    0.000000   0.000000
    32  O    0.000000   0.000000
         Mulliken charges and spin densities condensed to fragments:
      1      0.000000      0.000000
      2      0.000000      0.000000
      3      0.000000      0.000000
 Electronic spatial extent (au):  <R**2>=            732.9943
 Charge=              0.0000 electrons
 Dipole moment (field-independent basis, Debye):
    X=              0.1058    Y=              0.1477    Z=             -2.0202  Tot=              2.0283
 Quadrupole moment (field-independent basis, Debye-Ang):
   XX=             -5.2341   YY=             -4.9291   ZZ=             -5.1971
   XY=             -0.7974   XZ=             -6.9414   YZ=             -6.0173
 Traceless Quadrupole moment (field-independent basis, Debye-Ang):
   XX=             -0.1140   YY=              0.1910   ZZ=             -0.0770
   XY=             -0.7974   XZ=             -6.9414   YZ=             -6.0173
 Octapole moment (field-independent basis, Debye-Ang**2):
  XXX=            -56.4085  YYY=            -47.0056  ZZZ=              2.9633  XYY=            -25.1496
  XXY=            -24.4910  XXZ=            -23.1744  XZZ=            -17.4064  YZZ=            -15.1912
  YYZ=            -17.3308  XYZ=            -19.7923
 Hexadecapole moment (field-independent basis, Debye-Ang**3):
 XXXX=           -394.1175 YYYY=           -288.7132 ZZZZ=             -7.8574 XXXY=           -214.5180
 XXXZ=            -75.1673 YYYX=           -197.5505 YYYZ=            -48.2570 ZZZX=              9.9224
 ZZZY=              8.6946 XXYY=           -166.5840 XXZZ=            -60.3163 YYZZ=            -46.3776
 XXYZ=            -63.0732 YYXZ=            -54.3665 ZZXY=            -51.4301
 N-N= 9.085290633374D+00 E-N=-1.991186691612D+02  KE= 7.618782537825D+01
 There are a total of       66422 grid points.
 ElSum from          density=       10.0000000610
 ElSum from atomic densities=       10.0000000517
 Hirshfeld populations at iteration   1 (CA, CB, DipXYZ):
               1          2          3          4          5
     1  O    0.000000   0.000000   0.000000   0.000000   0.000000
     2  O    0.000000   0.000000   0.000000   0.000000   0.000000
     3  C    0.000000   0.000000   0.000000   0.000000   0.000000
     4  H    0.000000   0.000000   0.000000   0.000000   0.000000
     5  O    0.000000   0.000000   0.000000   0.000000   0.000000
     6  O    0.000000   0.000000   0.000000   0.000000   0.000000
     7  C    0.000000   0.000000   0.000000   0.000000   0.000000
     8  H    0.000000   0.000000   0.000000   0.000000   0.000000
     9  O    0.000000   0.000000   0.000000   0.000000   0.000000
    10  O    0.000000   0.000000   0.000000   0.000000   0.000000
    11  O    0.000000   0.000000   0.000000   0.000000   0.000000
    12  C    0.000000   0.000000   0.000000   0.000000   0.000000
    13  H    0.000000   0.000000   0.000000   0.000000   0.000000
    14  O    0.000000   0.000000   0.000000   0.000000   0.000000
    15  O    0.000000   0.000000   0.000000   0.000000   0.000000
    16  C    0.000000   0.000000   0.000000   0.000000   0.000000
    17  H    0.000000   0.000000   0.000000   0.000000   0.000000
    18  Fe   0.000000   0.000000   0.000000   0.000000   0.000000
    19  O    0.000000   0.000000   0.000000   0.000000   0.000000
    20  Fe   0.000000   0.000000   0.000000   0.000000   0.000000
    21  O    0.000000   0.000000   0.000000   0.000000   0.000000
    22  O    0.000000   0.000000   0.000000   0.000000   0.000000
    23  Fe   0.000000   0.000000   0.000000   0.000000   0.000000
    24  O    0.000000   0.000000   0.000000   0.000000   0.000000
    25  C    0.000000   0.000000   0.000000   0.000000   0.000000
    26  H    0.000000   0.000000   0.000000   0.000000   0.000000
    27  C    0.000000   0.000000   0.000000   0.000000   0.000000
    28  H    0.000000   0.000000   0.000000   0.000000   0.000000
    29  N    0.000000   0.000000   0.000000   0.000000   0.000000
    30  N    0.000000   0.000000   0.000000   0.000000   0.000000
    31  O    0.000000   0.000000   0.000000   0.000000   0.000000
    32  O    4.154596   4.154596   0.008785   0.012526  -0.169845
    33  H    0.422673   0.422673   0.132608  -0.120966  -0.142914
    34  H    0.422731   0.422731  -0.118037   0.141487  -0.136781
       Tot   5.000000   5.000000   0.023356   0.033046  -0.449539

 Dip from Atomic Chgs              0.018250   0.025048  -0.345257
         Total Dipole              0.041606   0.058095  -0.794796

 Hirshfeld charges, spin densities, dipoles, and CM5 charges using IRadAn=      5:
              Q-H        S-H        Dx         Dy         Dz        Q-CM5   
     1  O    0.000000   0.000000   0.000000   0.000000   0.000000   0.000000
     2  O    0.000000   0.000000   0.000000   0.000000   0.000000   0.000000
     3  C    0.000000   0.000000   0.000000   0.000000   0.000000   0.000000
     4  H    0.000000   0.000000   0.000000   0.000000   0.000000   0.000000
     5  O    0.000000   0.000000   0.000000   0.000000   0.000000   0.000000
     6  O    0.000000   0.000000   0.000000   0.000000   0.000000   0.000000
     7  C    0.000000   0.000000   0.000000   0.000000   0.000000   0.000000
     8  H    0.000000   0.000000   0.000000   0.000000   0.000000   0.000000
     9  O    0.000000   0.000000   0.000000   0.000000   0.000000   0.000000
    10  O    0.000000   0.000000   0.000000   0.000000   0.000000   0.000000
    11  O    0.000000   0.000000   0.000000   0.000000   0.000000   0.000000
    12  C    0.000000   0.000000   0.000000   0.000000   0.000000   0.000000
    13  H    0.000000   0.000000   0.000000   0.000000   0.000000   0.000000
    14  O    0.000000   0.000000   0.000000   0.000000   0.000000   0.000000
    15  O    0.000000   0.000000   0.000000   0.000000   0.000000   0.000000
    16  C    0.000000   0.000000   0.000000   0.000000   0.000000   0.000000
    17  H    0.000000   0.000000   0.000000   0.000000   0.000000   0.000000
    18  Fe   0.000000   0.000000   0.000000   0.000000   0.000000   0.000000
    19  O    0.000000   0.000000   0.000000   0.000000   0.000000   0.000000
    20  Fe   0.000000   0.000000   0.000000   0.000000   0.000000   0.000000
    21  O    0.000000   0.000000   0.000000   0.000000   0.000000   0.000000
    22  O    0.000000   0.000000   0.000000   0.000000   0.000000   0.000000
    23  Fe   0.000000   0.000000   0.000000   0.000000   0.000000   0.000000
    24  O    0.000000   0.000000   0.000000   0.000000   0.000000   0.000000
    25  C    0.000000   0.000000   0.000000   0.000000   0.000000   0.000000
    26  H    0.000000   0.000000   0.000000   0.000000   0.000000   0.000000
    27  C    0.000000   0.000000   0.000000   0.000000   0.000000   0.000000
    28  H    0.000000   0.000000   0.000000   0.000000   0.000000   0.000000
    29  N    0.000000   0.000000   0.000000   0.000000   0.000000   0.000000
    30  N    0.000000   0.000000   0.000000   0.000000   0.000000   0.000000
    31  O    0.000000   0.000000   0.000000   0.000000   0.000000   0.000000
    32  O   -0.309193   0.000000   0.008785   0.012526  -0.169845  -0.636222
    33  H    0.154655   0.000000   0.132608  -0.120966  -0.142914   0.318034
    34  H    0.154538   0.000000  -0.118037   0.141487  -0.136781   0.318188
       Tot  -0.000000   0.000000   0.023356   0.033046  -0.449539  -0.000000
 Hirshfeld charges and spin densities with hydrogens summed into heavy atoms:
              Q-H        S-H       Q-CM5   
     1  O    0.000000   0.000000   0.000000
     2  O    0.000000   0.000000   0.000000
     3  C    0.000000   0.000000   0.000000
     5  O    0.000000   0.000000   0.000000
     6  O    0.000000   0.000000   0.000000
     7  C    0.000000   0.000000   0.000000
     9  O    0.000000   0.000000   0.000000
    10  O    0.000000   0.000000   0.000000
    11  O    0.000000   0.000000   0.000000
    12  C    0.000000   0.000000   0.000000
    14  O    0.000000   0.000000   0.000000
    15  O    0.000000   0.000000   0.000000
    16  C    0.000000   0.000000   0.000000
    18  Fe   0.000000   0.000000   0.000000
    19  O    0.000000   0.000000   0.000000
    20  Fe   0.000000   0.000000   0.000000
    21  O    0.000000   0.000000   0.000000
    22  O    0.000000   0.000000   0.000000
    23  Fe   0.000000   0.000000   0.000000
    24  O    0.000000   0.000000   0.000000
    25  C    0.000000   0.000000   0.000000
    27  C    0.000000   0.000000   0.000000
    29  N    0.000000   0.000000   0.000000
    30  N    0.000000   0.000000   0.000000
    31  O    0.000000   0.000000   0.000000
    32  O   -0.000000   0.000000  -0.000000
         Hirshfeld charges and spin densities condensed to fragments:
      1      0.000000      0.000000
      2      0.000000      0.000000
      3     -0.000000      0.000000
 
 EQQ=  0.00000000000     EQD=  0.00000000000     EDD= 0.726014535774E-02
 EQQ+QD+DD= 0.726014535774E-02
 
                          Isotropic Fermi Contact Couplings
        Atom                 a.u.       MegaHertz       Gauss      10(-4) cm-1
    32  O(17)              0.00000      -0.00000      -0.00000      -0.00000
    33  H(1)               0.00000       0.00000       0.00000       0.00000
    34  H(1)               0.00000       0.00000       0.00000       0.00000
 --------------------------------------------------------
       Center         ----  Spin Dipole Couplings  ----
                      3XX-RR        3YY-RR        3ZZ-RR
 --------------------------------------------------------
    32   Atom        0.000000      0.000000      0.000000
    33   Atom        0.000000      0.000000      0.000000
    34   Atom        0.000000      0.000000      0.000000
 --------------------------------------------------------
                        XY            XZ            YZ
 --------------------------------------------------------
    32   Atom        0.000000      0.000000      0.000000
    33   Atom        0.000000      0.000000      0.000000
    34   Atom        0.000000      0.000000      0.000000
 --------------------------------------------------------


 ---------------------------------------------------------------------------------
              Anisotropic Spin Dipole Couplings in Principal Axis System
 ---------------------------------------------------------------------------------

       Atom             a.u.   MegaHertz   Gauss  10(-4) cm-1        Axes

              Baa     0.0000    -0.000    -0.000    -0.000  1.0000  0.0000  0.0000
    32 O(17)  Bbb     0.0000    -0.000    -0.000    -0.000 -0.0000  1.0000  0.0000
              Bcc     0.0000    -0.000    -0.000    -0.000  0.0000  0.0000  1.0000
 
              Baa     0.0000     0.000     0.000     0.000  1.0000  0.0000  0.0000
    33 H(1)   Bbb     0.0000     0.000     0.000     0.000 -0.0000  1.0000  0.0000
              Bcc     0.0000     0.000     0.000     0.000  0.0000  0.0000  1.0000
 
              Baa     0.0000     0.000     0.000     0.000  1.0000  0.0000  0.0000
    34 H(1)   Bbb     0.0000     0.000     0.000     0.000 -0.0000  1.0000  0.0000
              Bcc     0.0000     0.000     0.000     0.000  0.0000  0.0000  1.0000
 

 ---------------------------------------------------------------------------------

 No NMR shielding tensors so no spin-rotation constants.
 Leave Link  601 at Mon Jan 30 15:04:18 2023, MaxMem= 14763950080 cpu:               0.4 elap:               0.2
 (Enter /software/commercial/gaussian/g16/AVX2/g16/l122.exe)
 CPIOFr:  IOpCl= 1 IRwI=-1 IRwCP=  731 ICalc=  6 LCPTot=     1216073 Len1MO=     4033158 IndFrg=    29448179
 Restoring MOs from calculation   1 to rwf.
 CPIOFr:  IOpCl= 1 IRwI=-2 IRwCP=  731 ICalc=  0 LCPTot=     1216073 Len1MO=     4033158 IndFrg=     5249231
 Counterpoise corrected energy =   -5263.286626926179
                   BSSE energy =       0.004070147878
              sum of fragments =   -5263.239636955554
           complexation energy =     -32.04 kcal/mole (raw)
           complexation energy =     -29.49 kcal/mole (corrected)
 Leave Link  122 at Mon Jan 30 15:04:18 2023, MaxMem= 14763950080 cpu:               0.1 elap:               0.1
 (Enter /software/commercial/gaussian/g16/AVX2/g16/l9999.exe)
 Unable to Open any file for archive entry.
 1\1\GINC-NODE2010\SP\UM06L\Gen\C6H8Fe3N2O15(15)\SVICCHI\30-Jan-2023\0\
 \#p gen um06l int=grid=ultrafine scf=(xqc,intrep,maxconventionalcycle=
 150) pop=(hirshfeld) nosymm counterpoise=3\\FeFeFe-AO-1xH2O\\0,15\O,0,
 0.875659,2.526972,1.632\O,0,-1.294963,1.930939,1.513165\C,0,-0.327966,
 2.580047,1.976165\H,0,-0.566666,3.2854,2.79064\O,0,2.356351,-1.641458,
 -1.406179\O,0,3.026318,0.504637,-1.255951\C,0,3.062159,-0.65766,-1.725
 187\H,0,3.805383,-0.839738,-2.521546\O,0,-2.002702,-0.879988,1.440234\
 O,0,2.949864,0.440771,1.604416\O,0,2.370355,-1.730278,1.424031\C,0,3.0
 25738,-0.773257,1.901582\H,0,3.758321,-1.036107,2.683796\O,0,-1.237791
 ,1.97201,-1.352134\O,0,0.915518,2.627786,-1.236008\C,0,-0.252664,2.663
 872,-1.692855\H,0,-0.436302,3.39737,-2.498044\Fe,0,-1.384585,0.52177,0
 .062976\O,0,-1.984761,-0.818458,-1.381874\Fe,0,0.91623,-1.725918,0.019
 706\O,0,-0.363397,-2.383322,-1.41092\O,0,-0.378678,-2.443288,1.410485\
 Fe,0,1.829106,1.427134,0.225398\O,0,0.460668,0.083531,0.080767\C,0,-1.
 44296,-1.872754,-1.789502\H,0,-1.980901,-2.418498,-2.583824\C,0,-1.462
 209,-1.951342,1.802989\H,0,-2.00598,-2.533749,2.566792\N,0,-4.448079,0
 .019787,-0.000661\N,0,-5.135438,-0.866263,-0.040932\O,0,-3.737223,0.96
 529,0.04188\O,0,3.364725,2.925129,-0.131768\H,0,3.92463,2.414444,-0.73
 5811\H,0,2.86689,3.521975,-0.709516\\Version=ES64L-G16RevC.02\HF=-76.4
 43125\S2=0.\S2-1=0.\S2A=0.\RMSD=3.112e-09\Dipole=0.0580654,0.8240916,-
 0.592597\Quadrupole=3.6641282,-2.085869,-1.5782592,3.1903752,-4.97441,
 -4.3514568\PG=C01 [X(C6H8Fe3N2O15)]\\@
 The archive entry for this job was punched.


 QUHEN THE CAUSS IS TAKEN AWAY THE EFFECT WANISHETH.
 -- PROVERBS AND REASONS OF THE YEAR 1585
           AS REPRINTED IN PAISLEY MAGAZINE 1828.
 Job cpu time:       0 days 12 hours 36 minutes 38.3 seconds.
 Elapsed time:       0 days  6 hours 21 minutes 31.1 seconds.
 File lengths (MBytes):  RWF=   1054 Int=      0 D2E=      0 Chk=    275 Scr=      1
 Normal termination of Gaussian 16 at Mon Jan 30 15:04:20 2023.
