 Entering Gaussian System, Link 0=g16
 Input=FeFeFe-AO-1xH2O-freq.gjf
 Output=FeFeFe-AO-1xH2O-freq.log
 AtFile(1): /zfs/curium/svicchi/00-MOF/01-Gaussian/zw-basis-set/def2-TZVP/H.gbs
            !----------------------------------------------------------------------
            ! Basis Set Exchange
            ! Version v0.9
            ! https://www.basissetexchange.org
            !----------------------------------------------------------------------
            !   Basis set: def2-TZVP
            ! Description: def2-TZVP
            !        Role: orbital
            !     Version: 1  (Data from Turbomole 7.3)
            !----------------------------------------------------------------------
            H     0
            S    3   1.00
                 34.0613410              0.60251978D-02
                  5.1235746              0.45021094D-01
                  1.1646626              0.20189726
            S    1   1.00
                  0.32723041             1.0000000
            S    1   1.00
                  0.10307241             1.0000000
            P    1   1.00
                  0.8000000              1.0000000
 AtFile(1): /zfs/curium/svicchi/00-MOF/01-Gaussian/zw-basis-set/def2-TZVP/O.gbs
            !----------------------------------------------------------------------
            ! Basis Set Exchange
            ! Version v0.9
            ! https://www.basissetexchange.org
            !----------------------------------------------------------------------
            !   Basis set: def2-TZVP
            ! Description: def2-TZVP
            !        Role: orbital
            !     Version: 1  (Data from Turbomole 7.3)
            !----------------------------------------------------------------------
            O     0
            S    6   1.00
              27032.3826310              0.21726302465D-03
               4052.3871392              0.16838662199D-02
                922.32722710             0.87395616265D-02
                261.24070989             0.35239968808D-01
                 85.354641351            0.11153519115
                 31.035035245            0.25588953961
            S    2   1.00
                 12.260860728            0.39768730901
                  4.9987076005           0.24627849430
            S    1   1.00
                  1.1703108158           1.0000000
            S    1   1.00
                  0.46474740994          1.0000000
            S    1   1.00
                  0.18504536357          1.0000000
            P    4   1.00
                 63.274954801            0.60685103418D-02
                 14.627049379            0.41912575824D-01
                  4.4501223456           0.16153841088
                  1.5275799647           0.35706951311
            P    1   1.00
                  0.52935117943           .44794207502
            P    1   1.00
                  0.17478421270           .24446069663
            D    1   1.00
                  2.31400000             1.0000000
            D    1   1.00
                  0.64500000             1.0000000
            F    1   1.00
                  1.42800000             1.0000000
 AtFile(1): /zfs/curium/svicchi/00-MOF/01-Gaussian/zw-basis-set/def2-TZVP/C.gbs
            !----------------------------------------------------------------------
            ! Basis Set Exchange
            ! Version v0.9
            ! https://www.basissetexchange.org
            !----------------------------------------------------------------------
            !   Basis set: def2-TZVP
            ! Description: def2-TZVP
            !        Role: orbital
            !     Version: 1  (Data from Turbomole 7.3)
            !----------------------------------------------------------------------
            C     0
            S    6   1.00
              13575.3496820              0.22245814352D-03
               2035.2333680              0.17232738252D-02
                463.22562359             0.89255715314D-02
                131.20019598             0.35727984502D-01
                 42.853015891            0.11076259931
                 15.584185766            0.24295627626
            S    2   1.00
                  6.2067138508           0.41440263448
                  2.5764896527           0.23744968655
            S    1   1.00
                  0.57696339419          1.0000000
            S    1   1.00
                  0.22972831358          1.0000000
            S    1   1.00
                  0.95164440028D-01      1.0000000
            P    4   1.00
                 34.697232244            0.53333657805D-02
                  7.9582622826           0.35864109092D-01
                  2.3780826883           0.14215873329
                  0.81433208183          0.34270471845
            P    1   1.00
                  0.28887547253           .46445822433
            P    1   1.00
                  0.10056823671           .24955789874
            D    1   1.00
                  1.09700000             1.0000000
            D    1   1.00
                  0.31800000             1.0000000
            F    1   1.00
                  0.76100000             1.0000000
 AtFile(1): /zfs/curium/svicchi/00-MOF/01-Gaussian/zw-basis-set/def2-TZVP/Fe.gbs
            !----------------------------------------------------------------------
            ! Basis Set Exchange
            ! Version v0.9
            ! https://www.basissetexchange.org
            !----------------------------------------------------------------------
            !   Basis set: def2-TZVP
            ! Description: def2-TZVP
            !        Role: orbital
            !     Version: 1  (Data from Turbomole 7.3)
            !----------------------------------------------------------------------
            Fe     0
            S    8   1.00
             300784.8463700              0.22806273096D-03
              45088.9705570              0.17681788761D-02
              10262.5163170              0.91927083490D-02
               2905.2897293              0.37355495807D-01
                946.11487137             0.12151108426
                339.87832894             0.28818881468
                131.94425588             0.41126612677
                 52.111494077            0.21518583573
            S    4   1.00
                329.48839267            -0.24745216477D-01
                101.92332739            -0.11683089050
                 16.240462745            0.55293621136
                  6.8840675801           0.53601640182
            S    2   1.00
                 10.470693782           -0.22912708577
                  1.7360039648           0.71159319984
            S    1   1.00
                  0.72577288979          1.0000000
            S    1   1.00
                  0.11595528203          1.0000000
            S    1   1.00
                  0.41968227746D-01      1.0000000
            P    6   1.00
               1585.3959970              0.23793960179D-02
                375.38006499             0.19253154755D-01
                120.31816501             0.90021836536D-01
                 44.788749031            0.25798172356
                 17.829278584            0.41492649744
                  7.2247153786           0.24207474784
            P    3   1.00
                 28.143219756           -0.29041755152D-01
                  3.8743241412           0.55312260343
                  1.5410752281           0.96771136842
            P    1   1.00
                  0.58285615250          1.0000000
            P    1   1.00
                  0.1349150              1.0000000
            D    4   1.00
                 61.996675034            0.11971972255D-01
                 17.873732552            0.73210135410D-01
                  6.2744782934           0.23103094314
                  2.3552337175           0.39910706494
            D    1   1.00
                  0.85432239901           .41391589765
            D    1   1.00
                  0.27869254413           .21909269782
            D    1   1.00
                  0.0910000              1.0000000
            F    1   1.00
                  1.5980000              1.0000000
 AtFile(1): /zfs/curium/svicchi/00-MOF/01-Gaussian/zw-basis-set/def2-TZVP/N.gbs
            !----------------------------------------------------------------------
            ! Basis Set Exchange
            ! Version v0.9
            ! https://www.basissetexchange.org
            !----------------------------------------------------------------------
            !   Basis set: def2-TZVP
            ! Description: def2-TZVP
            !        Role: orbital
            !     Version: 1  (Data from Turbomole 7.3)
            !----------------------------------------------------------------------
            N     0
            S    6   1.00
              19730.8006470              0.21887984991D-03
               2957.8958745              0.16960708803D-02
                673.22133595             0.87954603538D-02
                190.68249494             0.35359382605D-01
                 62.295441898            0.11095789217
                 22.654161182            0.24982972552
            S    2   1.00
                  8.9791477428           0.40623896148
                  3.6863002370           0.24338217176
            S    1   1.00
                  0.84660076805          1.0000000
            S    1   1.00
                  0.33647133771          1.0000000
            S    1   1.00
                  0.13647653675          1.0000000
            P    4   1.00
                 49.200380510            0.55552416751D-02
                 11.346790537            0.38052379723D-01
                  3.4273972411           0.14953671029
                  1.1785525134           0.34949305230
            P    1   1.00
                  0.41642204972           .45843153697
            P    1   1.00
                  0.14260826011           .24428771672
            D    1   1.00
                  1.65400000             1.0000000
            D    1   1.00
                  0.46900000             1.0000000
            F    1   1.00
                  1.09300000             1.0000000
 Initial command:
 /software/commercial/gaussian/g16/AVX2/g16/l1.exe "/scratch1/svicchi/G09-79393.pbs02/Gau-1427416.inp" -scrdir="/scratch1/svicchi/G09-79393.pbs02/"
 Entering Link 1 = /software/commercial/gaussian/g16/AVX2/g16/l1.exe PID=   1427417.
  
 Copyright (c) 1988-2021, Gaussian, Inc.  All Rights Reserved.
  
 This is part of the Gaussian(R) 16 program.  It is based on
 the Gaussian(R) 09 system (copyright 2009, Gaussian, Inc.),
 the Gaussian(R) 03 system (copyright 2003, Gaussian, Inc.),
 the Gaussian(R) 98 system (copyright 1998, Gaussian, Inc.),
 the Gaussian(R) 94 system (copyright 1995, Gaussian, Inc.),
 the Gaussian 92(TM) system (copyright 1992, Gaussian, Inc.),
 the Gaussian 90(TM) system (copyright 1990, Gaussian, Inc.),
 the Gaussian 88(TM) system (copyright 1988, Gaussian, Inc.),
 the Gaussian 86(TM) system (copyright 1986, Carnegie Mellon
 University), and the Gaussian 82(TM) system (copyright 1983,
 Carnegie Mellon University). Gaussian is a federally registered
 trademark of Gaussian, Inc.
  
 This software contains proprietary and confidential information,
 including trade secrets, belonging to Gaussian, Inc.
  
 This software is provided under written license and may be
 used, copied, transmitted, or stored only in accord with that
 written license.
  
 The following legend is applicable only to US Government
 contracts under FAR:
  
                    RESTRICTED RIGHTS LEGEND
  
 Use, reproduction and disclosure by the US Government is
 subject to restrictions as set forth in subparagraphs (a)
 and (c) of the Commercial Computer Software - Restricted
 Rights clause in FAR 52.227-19.
  
 Gaussian, Inc.
 340 Quinnipiac St., Bldg. 40, Wallingford CT 06492
  
  
 ---------------------------------------------------------------
 Warning -- This program may not be used in any manner that
 competes with the business of Gaussian, Inc. or will provide
 assistance to any competitor of Gaussian, Inc.  The licensee
 of this program is prohibited from giving any competitor of
 Gaussian, Inc. access to this program.  By using this program,
 the user acknowledges that Gaussian, Inc. is engaged in the
 business of creating and licensing software in the field of
 computational chemistry and represents and warrants to the
 licensee that it is not a competitor of Gaussian, Inc. and that
 it will not use this program in any manner prohibited above.
 ---------------------------------------------------------------
  

 Cite this work as:
 Gaussian 16, Revision C.02,
 M. J. Frisch, G. W. Trucks, H. B. Schlegel, G. E. Scuseria, 
 M. A. Robb, J. R. Cheeseman, G. Scalmani, V. Barone, 
 G. A. Petersson, H. Nakatsuji, X. Li, M. Caricato, A. V. Marenich, 
 J. Bloino, B. G. Janesko, R. Gomperts, B. Mennucci, H. P. Hratchian, 
 J. V. Ortiz, A. F. Izmaylov, J. L. Sonnenberg, D. Williams-Young, 
 F. Ding, F. Lipparini, F. Egidi, J. Goings, B. Peng, A. Petrone, 
 T. Henderson, D. Ranasinghe, V. G. Zakrzewski, J. Gao, N. Rega, 
 G. Zheng, W. Liang, M. Hada, M. Ehara, K. Toyota, R. Fukuda, 
 J. Hasegawa, M. Ishida, T. Nakajima, Y. Honda, O. Kitao, H. Nakai, 
 T. Vreven, K. Throssell, J. A. Montgomery, Jr., J. E. Peralta, 
 F. Ogliaro, M. J. Bearpark, J. J. Heyd, E. N. Brothers, K. N. Kudin, 
 V. N. Staroverov, T. A. Keith, R. Kobayashi, J. Normand, 
 K. Raghavachari, A. P. Rendell, J. C. Burant, S. S. Iyengar, 
 J. Tomasi, M. Cossi, J. M. Millam, M. Klene, C. Adamo, R. Cammi, 
 J. W. Ochterski, R. L. Martin, K. Morokuma, O. Farkas, 
 J. B. Foresman, and D. J. Fox, Gaussian, Inc., Wallingford CT, 2019.
 
 ******************************************
 Gaussian 16:  ES64L-G16RevC.02  7-Dec-2021
                29-Jan-2023 
 ******************************************
 %NProcShared=2
 Will use up to    2 processors via shared memory.
 %mem=110gb
 %chk=/scratch1/svicchi/G09-79393.pbs02/02-freq/FeFeFe-AO-1xH2O-freq.chk
 ----------------------------------------------------------------------
 #p freq=raman scale=0.967 guess=read geom=allcheck gen um06l int=grid=
 ultrafine scf=(xqc,intrep,maxconventionalcycle=150) pop=(hirshfeld) no
 symm
 ----------------------------------------------------------------------
 1/10=4,29=7,30=1,38=1,114=967000/1,3;
 2/12=2,15=1,40=1/2;
 3/5=7,11=2,14=-4,25=1,30=1,71=2,74=-53,75=-5,116=2,140=1/1,2,3;
 4/5=1/1;
 5/5=2,8=3,13=1,17=20,38=6,85=150,98=1/2,8;
 8/6=4,10=90,11=11/1;
 10/13=10,15=4,31=1/2;
 11/6=3,8=1,9=11,15=111,16=1,31=1/1,2,10;
 10/6=1,31=1/2;
 6/7=2,8=2,9=2,10=2,28=1,79=1/1;
 7/8=1,10=1,25=1,30=1/1,2,3,16;
 1/10=4,30=1/3;
 99//99;
 Leave Link    1 at Sun Jan 29 07:55:20 2023, MaxMem= 14763950080 cpu:               0.0 elap:               0.1
 (Enter /software/commercial/gaussian/g16/AVX2/g16/l101.exe)
 Structure from the checkpoint file:  "/scratch1/svicchi/G09-79393.pbs02/02-freq/FeFeFe-AO-1xH2O-freq.chk"
 ---------------
 FeFeFe-AO-1xH2O
 ---------------
 Charge =  0 Multiplicity =15
 No Z-Matrix found in chk file; cartesian coordinates used.
  O                                                 0.875659044534      2.526972394496      1.632000132437
  O                                                -1.294962912415      1.930939049182      1.513165479960
  C                                                -0.327965686022      2.580047260230      1.976165073009
  H                                                -0.566665739021      3.285400121131      2.790639814118
  O                                                 2.356351194596     -1.641458441621     -1.406179255535
  O                                                 3.026318171371      0.504636934345     -1.255951411698
  C                                                 3.062159175074     -0.657659895163     -1.725187232632
  H                                                 3.805383168478     -0.839738069189     -2.521545723342
  O                                                -2.002701628342     -0.879987595557      1.440234404736
  O                                                 2.949864239448      0.440771460013      1.604415946111
  O                                                 2.370355072532     -1.730277807082      1.424031179850
  C                                                 3.025737970166     -0.773257476607      1.901581948995
  H                                                 3.758321375347     -1.036107095948      2.683795756305
  O                                                -1.237790590534      1.972010395418     -1.352134290496
  O                                                 0.915517538026      2.627786060717     -1.236008051082
  C                                                -0.252663846205      2.663871873599     -1.692854618536
  H                                                -0.436301951835      3.397369840662     -2.498044205084
  Fe                                               -1.384584734975      0.521770421452      0.062975934177
  O                                                -1.984760854888     -0.818458372807     -1.381873957713
  Fe                                                0.916230016293     -1.725917902818      0.019705592030
  O                                                -0.363396546167     -2.383321684987     -1.410920343907
  O                                                -0.378678341233     -2.443287997113      1.410485344221
  Fe                                                1.829105683550      1.427134483250      0.225397858203
  O                                                 0.460668448409      0.083530609446      0.080766908075
  C                                                -1.442959545584     -1.872753871167     -1.789502267042
  H                                                -1.980900517890     -2.418498407228     -2.583823520057
  C                                                -1.462209175662     -1.951342269806      1.802988565524
  H                                                -2.005980403138     -2.533749169311      2.566792466431
  N                                                -4.448079403078      0.019787304379     -0.000661153585
  N                                                -5.135438084561     -0.866262684072     -0.040932124765
  O                                                -3.737222699020      0.965290324971      0.041879832002
  O                                                 3.364725411085      2.925129369847     -0.131768459586
  H                                                 3.924629760077      2.414443636561     -0.735811058176
  H                                                 2.866890391582      3.521975200777     -0.709515562947
 Recover connectivity data from disk.
 ITRead=  0  0  0  0  0  0  0  0  0  0  0  0  0  0  0  0  0  0  0  0
 ITRead=  0  0  0  0  0  0  0  0  0  0  0  0  0  0
 MicOpt= -1 -1 -1 -1 -1 -1 -1 -1 -1 -1 -1 -1 -1 -1 -1 -1 -1 -1 -1 -1
 MicOpt= -1 -1 -1 -1 -1 -1 -1 -1 -1 -1 -1 -1 -1 -1
 NAtoms=     34 NQM=       34 NQMF=       0 NMMI=      0 NMMIF=      0
                NMic=       0 NMicF=      0.
                    Isotopes and Nuclear Properties:
 (Nuclear quadrupole moments (NQMom) in fm**2, nuclear magnetic moments (NMagM)
  in nuclear magnetons)

  Atom         1           2           3           4           5           6           7           8           9          10
 IAtWgt=          16          16          12           1          16          16          12           1          16          16
 AtmWgt=  15.9949146  15.9949146  12.0000000   1.0078250  15.9949146  15.9949146  12.0000000   1.0078250  15.9949146  15.9949146
 NucSpn=           0           0           0           1           0           0           0           1           0           0
 AtZEff=   5.6000000   5.6000000   3.6000000   1.0000000   5.6000000   5.6000000   3.6000000   1.0000000   5.6000000   5.6000000
 NQMom=    0.0000000   0.0000000   0.0000000   0.0000000   0.0000000   0.0000000   0.0000000   0.0000000   0.0000000   0.0000000
 NMagM=    0.0000000   0.0000000   0.0000000   2.7928460   0.0000000   0.0000000   0.0000000   2.7928460   0.0000000   0.0000000
 AtZNuc=   8.0000000   8.0000000   6.0000000   1.0000000   8.0000000   8.0000000   6.0000000   1.0000000   8.0000000   8.0000000

  Atom        11          12          13          14          15          16          17          18          19          20
 IAtWgt=          16          12           1          16          16          12           1          56          16          56
 AtmWgt=  15.9949146  12.0000000   1.0078250  15.9949146  15.9949146  12.0000000   1.0078250  55.9349393  15.9949146  55.9349393
 NucSpn=           0           0           1           0           0           0           1           0           0           0
 AtZEff=   5.6000000   3.6000000   1.0000000   5.6000000   5.6000000   3.6000000   1.0000000  25.2200000   5.6000000  25.2200000
 NQMom=    0.0000000   0.0000000   0.0000000   0.0000000   0.0000000   0.0000000   0.0000000   0.0000000   0.0000000   0.0000000
 NMagM=    0.0000000   0.0000000   2.7928460   0.0000000   0.0000000   0.0000000   2.7928460   0.0000000   0.0000000   0.0000000
 AtZNuc=   8.0000000   6.0000000   1.0000000   8.0000000   8.0000000   6.0000000   1.0000000  26.0000000   8.0000000  26.0000000

  Atom        21          22          23          24          25          26          27          28          29          30
 IAtWgt=          16          16          56          16          12           1          12           1          14          14
 AtmWgt=  15.9949146  15.9949146  55.9349393  15.9949146  12.0000000   1.0078250  12.0000000   1.0078250  14.0030740  14.0030740
 NucSpn=           0           0           0           0           0           1           0           1           2           2
 AtZEff=   5.6000000   5.6000000  25.2200000   5.6000000   3.6000000   1.0000000   3.6000000   1.0000000   4.5500000   4.5500000
 NQMom=    0.0000000   0.0000000   0.0000000   0.0000000   0.0000000   0.0000000   0.0000000   0.0000000   2.0440000   2.0440000
 NMagM=    0.0000000   0.0000000   0.0000000   0.0000000   0.0000000   2.7928460   0.0000000   2.7928460   0.4037610   0.4037610
 AtZNuc=   8.0000000   8.0000000  26.0000000   8.0000000   6.0000000   1.0000000   6.0000000   1.0000000   7.0000000   7.0000000

  Atom        31          32          33          34
 IAtWgt=          16          16           1           1
 AtmWgt=  15.9949146  15.9949146   1.0078250   1.0078250
 NucSpn=           0           0           1           1
 AtZEff=   5.6000000   5.6000000   1.0000000   1.0000000
 NQMom=    0.0000000   0.0000000   0.0000000   0.0000000
 NMagM=    0.0000000   0.0000000   2.7928460   2.7928460
 AtZNuc=   8.0000000   8.0000000   1.0000000   1.0000000
 Leave Link  101 at Sun Jan 29 07:55:20 2023, MaxMem= 14763950080 cpu:               0.1 elap:               0.1
 (Enter /software/commercial/gaussian/g16/AVX2/g16/l103.exe)

 GradGradGradGradGradGradGradGradGradGradGradGradGradGradGradGradGradGrad
 Berny optimization.
 Initialization pass.
 Trust Radius=3.00D-01 FncErr=1.00D-07 GrdErr=1.00D-07 EigMax=2.50D+02 EigMin=1.00D-04
 Number of steps in this run=      2 maximum allowed number of steps=      2.
 GradGradGradGradGradGradGradGradGradGradGradGradGradGradGradGradGradGrad

 Leave Link  103 at Sun Jan 29 07:55:20 2023, MaxMem= 14763950080 cpu:               0.0 elap:               0.1
 (Enter /software/commercial/gaussian/g16/AVX2/g16/l202.exe)
                          Input orientation:                          
 ---------------------------------------------------------------------
 Center     Atomic      Atomic             Coordinates (Angstroms)
 Number     Number       Type             X           Y           Z
 ---------------------------------------------------------------------
      1          8           0        0.875659    2.526972    1.632000
      2          8           0       -1.294963    1.930939    1.513165
      3          6           0       -0.327966    2.580047    1.976165
      4          1           0       -0.566666    3.285400    2.790640
      5          8           0        2.356351   -1.641458   -1.406179
      6          8           0        3.026318    0.504637   -1.255951
      7          6           0        3.062159   -0.657660   -1.725187
      8          1           0        3.805383   -0.839738   -2.521546
      9          8           0       -2.002702   -0.879988    1.440234
     10          8           0        2.949864    0.440771    1.604416
     11          8           0        2.370355   -1.730278    1.424031
     12          6           0        3.025738   -0.773257    1.901582
     13          1           0        3.758321   -1.036107    2.683796
     14          8           0       -1.237791    1.972010   -1.352134
     15          8           0        0.915518    2.627786   -1.236008
     16          6           0       -0.252664    2.663872   -1.692855
     17          1           0       -0.436302    3.397370   -2.498044
     18         26           0       -1.384585    0.521770    0.062976
     19          8           0       -1.984761   -0.818458   -1.381874
     20         26           0        0.916230   -1.725918    0.019706
     21          8           0       -0.363397   -2.383322   -1.410920
     22          8           0       -0.378678   -2.443288    1.410485
     23         26           0        1.829106    1.427134    0.225398
     24          8           0        0.460668    0.083531    0.080767
     25          6           0       -1.442960   -1.872754   -1.789502
     26          1           0       -1.980901   -2.418498   -2.583824
     27          6           0       -1.462209   -1.951342    1.802989
     28          1           0       -2.005980   -2.533749    2.566792
     29          7           0       -4.448079    0.019787   -0.000661
     30          7           0       -5.135438   -0.866263   -0.040932
     31          8           0       -3.737223    0.965290    0.041880
     32          8           0        3.364725    2.925129   -0.131768
     33          1           0        3.924630    2.414444   -0.735811
     34          1           0        2.866890    3.521975   -0.709516
 ---------------------------------------------------------------------
                    Distance matrix (angstroms):
                    1          2          3          4          5
     1  O    0.000000
     2  O    2.254102   0.000000
     3  C    1.252988   1.253313   0.000000
     4  H    1.999490   1.999230   1.103571   0.000000
     5  O    5.366451   5.883595   6.038785   7.101497   0.000000
     6  O    4.129823   5.326896   5.099522   6.084166   2.253253
     7  C    5.117946   6.014340   5.972914   7.007766   1.252114
     8  H    6.096718   7.068881   7.000636   8.021901   1.996620
     9  O    4.464203   2.899573   3.881212   4.608280   5.261487
    10  O    2.941993   4.499720   3.931777   4.676005   3.708318
    11  O    4.516807   5.181410   5.115143   5.970824   2.831638
    12  C    3.948041   5.111947   4.743158   5.492585   3.484700
    13  H    4.702292   5.975736   5.502277   6.114929   4.365761
    14  O    3.698609   2.866164   3.503579   4.397497   5.096855
    15  O    2.870056   3.595800   3.444791   4.340877   4.509036
    16  C    3.513761   3.449948   3.670750   4.537248   5.042322
    17  H    4.419966   4.356320   4.549539   5.291475   5.863520
    18  Fe   3.404611   2.024065   3.002206   3.968223   4.564272
    19  O    5.334543   4.051698   5.056801   6.021837   4.418504
    20  Fe   4.548430   4.526853   4.890510   5.915265   2.028356
    21  O    5.908097   5.294425   6.009046   7.058954   2.819115
    22  O    5.130879   4.470345   5.055340   5.895594   4.007108
    23  Fe   2.024163   3.416426   3.007881   3.971566   3.515152
    24  O    2.923859   2.923512   3.232193   4.318657   2.963142
    25  C    6.036577   5.039603   5.937247   6.953571   3.825597
    26  H    7.098647   6.014436   6.964994   7.963628   4.560964
    27  C    5.054717   3.896675   4.674397   5.403788   4.997618
    28  H    5.898185   4.642103   5.414378   5.998686   5.967464
    29  N    6.106861   3.985764   5.238140   5.789729   7.143913
    30  N    7.102537   4.998881   6.249602   6.791744   7.654524
    31  O    5.123086   3.010281   4.239332   4.794895   6.784074
    32  O    3.076501   5.040527   4.265962   4.911833   4.847130
    33  H    3.862048   5.704018   5.046465   5.776345   4.399913
    34  H    3.230747   4.979230   4.278693   4.908805   5.235173
                    6          7          8          9         10
     6  O    0.000000
     7  C    1.253954   0.000000
     8  H    2.004000   1.104410   0.000000
     9  O    5.871767   5.976800   7.030730   0.000000
    10  O    2.862102   3.507908   4.403996   5.128281   0.000000
    11  O    3.550695   3.398040   4.291846   4.454984   2.254290
    12  C    3.406322   3.628794   4.491806   5.050687   1.252170
    13  H    4.293172   4.479620   5.209257   5.895779   1.999958
    14  O    4.510550   5.054098   5.891269   4.064026   5.349985
    15  O    2.993934   3.954936   4.693363   5.289873   4.121845
    16  C    3.950304   4.692725   5.424920   5.043592   5.105914
    17  H    4.679790   5.411082   5.995459   6.021581   6.085867
    18  Fe   4.603903   4.935799   5.955604   2.060057   4.601092
    19  O    5.184337   5.061138   5.901277   2.822836   5.903737
    20  Fe   3.324928   2.964935   3.948478   3.354648   3.367717
    21  O    4.455837   3.848520   4.582015   3.616133   5.295796
    22  O    5.233942   4.986008   5.961427   2.254383   4.408470
    23  Fe   2.116298   3.109915   4.073093   4.634802   2.032413
    24  O    2.923475   3.252474   4.337231   2.974006   2.940276
    25  C    5.090295   4.666550   5.398899   3.424923   6.013982
    26  H    5.948126   5.410200   5.998120   4.308194   7.073133
    27  C    5.961193   5.881458   6.905417   1.253604   5.022751
    28  H    7.012075   6.901220   7.907769   2.001018   5.859551
    29  N    7.594567   7.735413   8.672559   2.977524   7.581759
    30  N    8.364801   8.371429   9.278601   3.465268   8.353899
    31  O    6.902322   7.210277   8.168242   2.892924   6.887218
    32  O    2.690184   3.932799   4.481009   6.764568   3.059163
    33  H    2.173677   3.340740   3.713861   7.121917   3.212820
    34  H    3.070560   4.305702   4.815471   6.907360   3.854216
                   11         12         13         14         15
    11  O    0.000000
    12  C    1.254380   0.000000
    13  H    1.998832   1.103461   0.000000
    14  O    5.867942   6.025018   7.092153   0.000000
    15  O    5.308962   5.085725   6.072109   2.253944   0.000000
    16  C    5.991974   5.956656   6.995207   1.251094   1.254854
    17  H    7.039373   6.981158   8.006375   1.996783   2.003100
    18  Fe   4.585168   4.950608   5.978726   2.031571   3.378333
    19  O    5.260376   5.990678   7.039889   2.888869   4.506605
    20  Fe   2.021541   2.983127   3.956096   4.494043   4.531176
    21  O    3.992094   5.005118   5.964080   4.442627   5.174690
    22  O    2.840027   3.823641   4.551510   5.278731   5.864696
    23  Fe   3.420369   3.013843   3.979089   3.491611   2.100456
    24  O    2.956546   3.260220   4.347857   2.916218   2.900693
    25  C    4.988834   5.899343   6.911128   3.874996   5.111128
    26  H    5.955667   6.920412   7.911857   4.620156   5.972506
    27  C    3.857593   4.641042   5.372841   5.039629   5.988113
    28  H    4.593885   5.372153   5.956828   6.020795   7.045416
    29  N    7.182167   7.752767   8.698634   3.992945   6.090641
    30  N    7.696075   8.389684   9.303330   4.996669   7.088769
    31  O    6.817546   7.226249   8.195639   3.033797   5.103419
    32  O    5.008203   4.234087   4.875830   4.856015   2.703031
    33  H    4.925384   4.233826   4.860830   5.217872   3.057854
    34  H    5.690758   5.029124   5.751984   4.434383   2.210119
                   16         17         18         19         20
    16  C    0.000000
    17  H    1.104569   0.000000
    18  Fe   2.992120   3.965745   0.000000
    19  O    3.901729   4.627825   2.060101   0.000000
    20  Fe   4.854836   5.866556   3.216788   3.347186   0.000000
    21  O    5.056274   5.882478   3.413906   2.253545   2.028870
    22  O    5.977431   7.028030   3.408695   3.607886   2.031176
    23  Fe   3.089171   4.053521   3.342734   4.708672   3.288980
    24  O    3.211345   4.293757   1.896663   2.988817   1.866914
    25  C    4.691174   5.411986   3.028008   1.253495   2.976671
    26  H    5.441610   6.018095   4.000790   2.001206   3.956185
    27  C    5.914738   6.939747   3.024889   3.420502   2.981256
    28  H    6.945069   7.955792   3.998929   4.305187   3.959742
    29  N    5.239868   5.808558   3.105002   2.945903   5.641251
    30  N    6.247574   6.804252   4.000792   3.424497   6.112722
    31  O    4.246956   4.823101   2.394172   2.877491   5.375660
    32  O    3.948512   4.502231   5.326350   6.647873   5.258357
    33  H    4.292776   4.805136   5.692805   6.766827   5.173381
    34  H    3.381555   3.758383   5.260514   6.544459   5.645992
                   21         22         23         24         25
    21  O    0.000000
    22  O    2.822084   0.000000
    23  Fe   4.690861   4.610739   0.000000
    24  O    2.998262   2.976150   1.923229   0.000000
    25  C    1.252781   3.420252   5.065126   3.308890   0.000000
    26  H    1.998314   4.303746   6.098915   4.395617   1.103705
    27  C    3.423917   1.253040   4.973495   3.286976   3.593402
    28  H    4.306148   1.998335   5.989876   4.372051   4.441983
    29  N    4.944532   4.961663   6.436985   4.909837   3.976482
    30  N    5.191408   5.217316   7.337266   5.677440   4.207721
    31  O    4.970567   4.977078   5.588469   4.289674   4.083148
    32  O    6.611715   6.723951   2.174784   4.068587   6.991538
    33  H    6.470046   6.835394   2.507972   4.254290   6.949917
    34  H    6.767515   7.114245   2.517820   4.270521   6.988868
                   26         27         28         29         30
    26  H    0.000000
    27  C    4.442004   0.000000
    28  H    5.151966   1.103758   0.000000
    29  N    4.324920   4.006735   4.367633   0.000000
    30  N    4.338991   4.250888   4.401618   1.122127   0.000000
    31  O    4.629148   4.096820   4.649265   1.183682   2.305743
    32  O    7.946235   7.128994   8.119487   8.336553   9.307829
    33  H    7.851609   7.384011   8.400234   8.739398   9.660783
    34  H    7.893246   7.416939   8.435097   8.141043   9.151005
                   31         32         33         34
    31  O    0.000000
    32  O    7.369450   0.000000
    33  H    7.836379   0.969103   0.000000
    34  H    7.121485   0.968430   1.531708   0.000000
 Symmetry turned off by external request.
 Stoichiometry    C6H8Fe3N2O15(15)
 Framework group  C1[X(C6H8Fe3N2O15)]
 Deg. of freedom    96
 Full point group                 C1      NOp   1
 Rotational constants (GHZ):           0.2465225           0.1630753           0.1327545
 Leave Link  202 at Sun Jan 29 07:55:21 2023, MaxMem= 14763950080 cpu:               0.0 elap:               0.0
 (Enter /software/commercial/gaussian/g16/AVX2/g16/l301.exe)
 General basis read from cards:  (5D, 7F)
 Centers:       4      8     13     17     26     28     33     34
 S 3 1.00
     Exponent=  3.4061341000D+01 Coefficients=  6.0251978000D-03
     Exponent=  5.1235746000D+00 Coefficients=  4.5021094000D-02
     Exponent=  1.1646626000D+00 Coefficients=  2.0189726000D-01
 S 1 1.00
     Exponent=  3.2723041000D-01 Coefficients=  1.0000000000D+00
 S 1 1.00
     Exponent=  1.0307241000D-01 Coefficients=  1.0000000000D+00
 P 1 1.00
     Exponent=  8.0000000000D-01 Coefficients=  1.0000000000D+00
 ****
 Centers:       1      2      5      6      9     10     11     14     15     19
 Centers:      21     22     24     31     32
 S 6 1.00
     Exponent=  2.7032382631D+04 Coefficients=  2.1726302465D-04
     Exponent=  4.0523871392D+03 Coefficients=  1.6838662199D-03
     Exponent=  9.2232722710D+02 Coefficients=  8.7395616265D-03
     Exponent=  2.6124070989D+02 Coefficients=  3.5239968808D-02
     Exponent=  8.5354641351D+01 Coefficients=  1.1153519115D-01
     Exponent=  3.1035035245D+01 Coefficients=  2.5588953961D-01
 S 2 1.00
     Exponent=  1.2260860728D+01 Coefficients=  3.9768730901D-01
     Exponent=  4.9987076005D+00 Coefficients=  2.4627849430D-01
 S 1 1.00
     Exponent=  1.1703108158D+00 Coefficients=  1.0000000000D+00
 S 1 1.00
     Exponent=  4.6474740994D-01 Coefficients=  1.0000000000D+00
 S 1 1.00
     Exponent=  1.8504536357D-01 Coefficients=  1.0000000000D+00
 P 4 1.00
     Exponent=  6.3274954801D+01 Coefficients=  6.0685103418D-03
     Exponent=  1.4627049379D+01 Coefficients=  4.1912575824D-02
     Exponent=  4.4501223456D+00 Coefficients=  1.6153841088D-01
     Exponent=  1.5275799647D+00 Coefficients=  3.5706951311D-01
 P 1 1.00
     Exponent=  5.2935117943D-01 Coefficients=  4.4794207502D-01
 P 1 1.00
     Exponent=  1.7478421270D-01 Coefficients=  2.4446069663D-01
 D 1 1.00
     Exponent=  2.3140000000D+00 Coefficients=  1.0000000000D+00
 D 1 1.00
     Exponent=  6.4500000000D-01 Coefficients=  1.0000000000D+00
 F 1 1.00
     Exponent=  1.4280000000D+00 Coefficients=  1.0000000000D+00
 ****
 Centers:       3      7     12     16     25     27
 S 6 1.00
     Exponent=  1.3575349682D+04 Coefficients=  2.2245814352D-04
     Exponent=  2.0352333680D+03 Coefficients=  1.7232738252D-03
     Exponent=  4.6322562359D+02 Coefficients=  8.9255715314D-03
     Exponent=  1.3120019598D+02 Coefficients=  3.5727984502D-02
     Exponent=  4.2853015891D+01 Coefficients=  1.1076259931D-01
     Exponent=  1.5584185766D+01 Coefficients=  2.4295627626D-01
 S 2 1.00
     Exponent=  6.2067138508D+00 Coefficients=  4.1440263448D-01
     Exponent=  2.5764896527D+00 Coefficients=  2.3744968655D-01
 S 1 1.00
     Exponent=  5.7696339419D-01 Coefficients=  1.0000000000D+00
 S 1 1.00
     Exponent=  2.2972831358D-01 Coefficients=  1.0000000000D+00
 S 1 1.00
     Exponent=  9.5164440028D-02 Coefficients=  1.0000000000D+00
 P 4 1.00
     Exponent=  3.4697232244D+01 Coefficients=  5.3333657805D-03
     Exponent=  7.9582622826D+00 Coefficients=  3.5864109092D-02
     Exponent=  2.3780826883D+00 Coefficients=  1.4215873329D-01
     Exponent=  8.1433208183D-01 Coefficients=  3.4270471845D-01
 P 1 1.00
     Exponent=  2.8887547253D-01 Coefficients=  4.6445822433D-01
 P 1 1.00
     Exponent=  1.0056823671D-01 Coefficients=  2.4955789874D-01
 D 1 1.00
     Exponent=  1.0970000000D+00 Coefficients=  1.0000000000D+00
 D 1 1.00
     Exponent=  3.1800000000D-01 Coefficients=  1.0000000000D+00
 F 1 1.00
     Exponent=  7.6100000000D-01 Coefficients=  1.0000000000D+00
 ****
 Centers:      18     20     23
 S 8 1.00
     Exponent=  3.0078484637D+05 Coefficients=  2.2806273096D-04
     Exponent=  4.5088970557D+04 Coefficients=  1.7681788761D-03
     Exponent=  1.0262516317D+04 Coefficients=  9.1927083490D-03
     Exponent=  2.9052897293D+03 Coefficients=  3.7355495807D-02
     Exponent=  9.4611487137D+02 Coefficients=  1.2151108426D-01
     Exponent=  3.3987832894D+02 Coefficients=  2.8818881468D-01
     Exponent=  1.3194425588D+02 Coefficients=  4.1126612677D-01
     Exponent=  5.2111494077D+01 Coefficients=  2.1518583573D-01
 S 4 1.00
     Exponent=  3.2948839267D+02 Coefficients= -2.4745216477D-02
     Exponent=  1.0192332739D+02 Coefficients= -1.1683089050D-01
     Exponent=  1.6240462745D+01 Coefficients=  5.5293621136D-01
     Exponent=  6.8840675801D+00 Coefficients=  5.3601640182D-01
 S 2 1.00
     Exponent=  1.0470693782D+01 Coefficients= -2.2912708577D-01
     Exponent=  1.7360039648D+00 Coefficients=  7.1159319984D-01
 S 1 1.00
     Exponent=  7.2577288979D-01 Coefficients=  1.0000000000D+00
 S 1 1.00
     Exponent=  1.1595528203D-01 Coefficients=  1.0000000000D+00
 S 1 1.00
     Exponent=  4.1968227746D-02 Coefficients=  1.0000000000D+00
 P 6 1.00
     Exponent=  1.5853959970D+03 Coefficients=  2.3793960179D-03
     Exponent=  3.7538006499D+02 Coefficients=  1.9253154755D-02
     Exponent=  1.2031816501D+02 Coefficients=  9.0021836536D-02
     Exponent=  4.4788749031D+01 Coefficients=  2.5798172356D-01
     Exponent=  1.7829278584D+01 Coefficients=  4.1492649744D-01
     Exponent=  7.2247153786D+00 Coefficients=  2.4207474784D-01
 P 3 1.00
     Exponent=  2.8143219756D+01 Coefficients= -2.9041755152D-02
     Exponent=  3.8743241412D+00 Coefficients=  5.5312260343D-01
     Exponent=  1.5410752281D+00 Coefficients=  9.6771136842D-01
 P 1 1.00
     Exponent=  5.8285615250D-01 Coefficients=  1.0000000000D+00
 P 1 1.00
     Exponent=  1.3491500000D-01 Coefficients=  1.0000000000D+00
 D 4 1.00
     Exponent=  6.1996675034D+01 Coefficients=  1.1971972255D-02
     Exponent=  1.7873732552D+01 Coefficients=  7.3210135410D-02
     Exponent=  6.2744782934D+00 Coefficients=  2.3103094314D-01
     Exponent=  2.3552337175D+00 Coefficients=  3.9910706494D-01
 D 1 1.00
     Exponent=  8.5432239901D-01 Coefficients=  4.1391589765D-01
 D 1 1.00
     Exponent=  2.7869254413D-01 Coefficients=  2.1909269782D-01
 D 1 1.00
     Exponent=  9.1000000000D-02 Coefficients=  1.0000000000D+00
 F 1 1.00
     Exponent=  1.5980000000D+00 Coefficients=  1.0000000000D+00
 ****
 Centers:      29     30
 S 6 1.00
     Exponent=  1.9730800647D+04 Coefficients=  2.1887984991D-04
     Exponent=  2.9578958745D+03 Coefficients=  1.6960708803D-03
     Exponent=  6.7322133595D+02 Coefficients=  8.7954603538D-03
     Exponent=  1.9068249494D+02 Coefficients=  3.5359382605D-02
     Exponent=  6.2295441898D+01 Coefficients=  1.1095789217D-01
     Exponent=  2.2654161182D+01 Coefficients=  2.4982972552D-01
 S 2 1.00
     Exponent=  8.9791477428D+00 Coefficients=  4.0623896148D-01
     Exponent=  3.6863002370D+00 Coefficients=  2.4338217176D-01
 S 1 1.00
     Exponent=  8.4660076805D-01 Coefficients=  1.0000000000D+00
 S 1 1.00
     Exponent=  3.3647133771D-01 Coefficients=  1.0000000000D+00
 S 1 1.00
     Exponent=  1.3647653675D-01 Coefficients=  1.0000000000D+00
 P 4 1.00
     Exponent=  4.9200380510D+01 Coefficients=  5.5552416751D-03
     Exponent=  1.1346790537D+01 Coefficients=  3.8052379723D-02
     Exponent=  3.4273972411D+00 Coefficients=  1.4953671029D-01
     Exponent=  1.1785525134D+00 Coefficients=  3.4949305230D-01
 P 1 1.00
     Exponent=  4.1642204972D-01 Coefficients=  4.5843153697D-01
 P 1 1.00
     Exponent=  1.4260826011D-01 Coefficients=  2.4428771672D-01
 D 1 1.00
     Exponent=  1.6540000000D+00 Coefficients=  1.0000000000D+00
 D 1 1.00
     Exponent=  4.6900000000D-01 Coefficients=  1.0000000000D+00
 F 1 1.00
     Exponent=  1.0930000000D+00 Coefficients=  1.0000000000D+00
 ****
 Ernie: Thresh=  0.10000D-02 Tol=  0.10000D-05 Strict=F.
   896 basis functions,  1543 primitive gaussians,  1032 cartesian basis functions
   135 alpha electrons      121 beta electrons
       nuclear repulsion energy      4738.2496714953 Hartrees.
 IExCor= 4134 DFT=T Ex+Corr=M06L ExCW=0 ScaHFX=  0.000000
 ScaDFX=  1.000000  1.000000  1.000000  1.000000 ScalE2=  1.000000  1.000000
 IRadAn=      5 IRanWt=     -1 IRanGd=            0 ICorTp=0 IEmpDi=  4
 NAtoms=   34 NActive=   34 NUniq=   34 SFac= 1.00D+00 NAtFMM=   60 NAOKFM=F Big=F
 Integral buffers will be    131072 words long.
 Raffenetti 2 integral format.
 Two-electron integral symmetry is turned off.
 Leave Link  301 at Sun Jan 29 07:55:21 2023, MaxMem= 14763950080 cpu:               0.1 elap:               0.1
 (Enter /software/commercial/gaussian/g16/AVX2/g16/l302.exe)
 NPDir=0 NMtPBC=     1 NCelOv=     1 NCel=       1 NClECP=     1 NCelD=      1
         NCelK=      1 NCelE2=     1 NClLst=     1 CellRange=     0.0.
 One-electron integrals computed using PRISM.
 NBasis=   896 RedAO= T EigKep=  1.11D-04  NBF=   896
 NBsUse=   896 1.00D-06 EigRej= -1.00D+00 NBFU=   896
 Precomputing XC quadrature grid using
 IXCGrd= 4 IRadAn=           5 IRanWt=          -1 IRanGd=           0 AccXCQ= 0.00D+00.
 Generated NRdTot=       0 NPtTot=           0 NUsed=           0 NTot=          32
 NSgBfM=  1013  1013  1013  1013  1013 MxSgAt=    34 MxSgA2=    34.
 Leave Link  302 at Sun Jan 29 07:55:23 2023, MaxMem= 14763950080 cpu:               2.6 elap:               1.7
 (Enter /software/commercial/gaussian/g16/AVX2/g16/l303.exe)
 DipDrv:  MaxL=1.
 Leave Link  303 at Sun Jan 29 07:55:23 2023, MaxMem= 14763950080 cpu:               0.2 elap:               0.2
 (Enter /software/commercial/gaussian/g16/AVX2/g16/l401.exe)
 Initial guess from the checkpoint file:  "/scratch1/svicchi/G09-79393.pbs02/02-freq/FeFeFe-AO-1xH2O-freq.chk"
 B after Tr=     0.000000    0.000000    0.000000
         Rot=    1.000000    0.000000    0.000000    0.000000 Ang=   0.00 deg.
 Guess basis will be translated and rotated to current coordinates.
 JPrj=2 DoOrth=T DoCkMO=T.
 Initial guess <Sx>= 0.0000 <Sy>= 0.0000 <Sz>= 7.0000 <S**2>=56.0655 S= 7.0044
 Leave Link  401 at Sun Jan 29 07:55:26 2023, MaxMem= 14763950080 cpu:               2.3 elap:               2.1
 (Enter /software/commercial/gaussian/g16/AVX2/g16/l502.exe)
 Two-electron integral symmetry not used.
 UHF open shell SCF:
 Using DIIS extrapolation, IDIIS=  1040.
 NGot= 14763950080 LenX= 14761806610 LenY= 14760740554
 Requested convergence on RMS density matrix=1.00D-08 within 150 cycles.
 Requested convergence on MAX density matrix=1.00D-06.
 Requested convergence on             energy=1.00D-06.
 No special actions if energy rises.
 Fock matrices will be formed incrementally for  20 cycles.

 Cycle   1  Pass 1  IDiag  1:
 FoFJK:  IHMeth= 1 ICntrl=     500 DoSepK=F KAlg= 0 I1Cent=           0 FoldK=F
 IRaf= 760000000 NMat=       1 IRICut=       1 DoRegI=T DoRafI=F ISym2E= 0 IDoP0=0 IntGTp=1.
 FoFCou: FMM=F IPFlag=           0 FMFlag=      100000 FMFlg1=           0
         NFxFlg=           0 DoJE=T BraDBF=F KetDBF=F FulRan=T
         wScrn=  0.000000 ICntrl=       500 IOpCl=  0 I1Cent=           0 NGrid=           0
         NMat0=    1 NMatS0=      1 NMatT0=    0 NMatD0=    1 NMtDS0=    0 NMtDT0=    0
 Symmetry not used in FoFCou.
 E= -5263.29069707419    
 DIIS: error= 1.19D-08 at cycle   1 NSaved=   1.
 NSaved= 1 IEnMin= 1 EnMin= -5263.29069707419     IErMin= 1 ErrMin= 1.19D-08
 ErrMax= 1.19D-08  0.00D+00 EMaxC= 1.00D-01 BMatC= 4.54D-13 BMatP= 4.54D-13
 IDIUse=1 WtCom= 1.00D+00 WtEn= 0.00D+00
 Coeff-Com:  0.100D+01
 Coeff:      0.100D+01
 Gap=     0.160 Goal=   None    Shift=    0.000
 Gap=     0.015 Goal=   None    Shift=    0.000
 RMSDP=4.79D-09 MaxDP=1.48D-06              OVMax= 7.03D-06

 Cycle   2  Pass 1  IDiag  1:
 RMSU=  4.79D-09    CP:  1.00D+00
 E= -5263.29069707425     Delta-E=       -0.000000000058 Rises=F Damp=F
 DIIS: error= 2.11D-07 at cycle   2 NSaved=   2.
 NSaved= 2 IEnMin= 2 EnMin= -5263.29069707425     IErMin= 1 ErrMin= 1.19D-08
 ErrMax= 2.11D-07  0.00D+00 EMaxC= 1.00D-01 BMatC= 1.11D-10 BMatP= 4.54D-13
 IDIUse=1 WtCom= 1.00D+00 WtEn= 0.00D+00
 Coeff-Com:  0.950D+00 0.502D-01
 Coeff:      0.950D+00 0.502D-01
 Gap=     0.160 Goal=   None    Shift=    0.000
 Gap=     0.015 Goal=   None    Shift=    0.000
 RMSDP=4.58D-09 MaxDP=1.46D-06 DE=-5.82D-11 OVMax= 6.76D-06

 Cycle   3  Pass 1  IDiag  1:
 RMSU=  1.70D-09    CP:  1.00D+00  1.12D-01
 E= -5263.29069707437     Delta-E=       -0.000000000124 Rises=F Damp=F
 DIIS: error= 1.50D-08 at cycle   3 NSaved=   3.
 NSaved= 3 IEnMin= 3 EnMin= -5263.29069707437     IErMin= 1 ErrMin= 1.19D-08
 ErrMax= 1.50D-08  0.00D+00 EMaxC= 1.00D-01 BMatC= 5.50D-13 BMatP= 4.54D-13
 IDIUse=1 WtCom= 1.00D+00 WtEn= 0.00D+00
 Coeff-Com:  0.717D+00 0.469D-01 0.236D+00
 Coeff:      0.717D+00 0.469D-01 0.236D+00
 Gap=     0.160 Goal=   None    Shift=    0.000
 Gap=     0.015 Goal=   None    Shift=    0.000
 RMSDP=7.51D-10 MaxDP=2.07D-07 DE=-1.24D-10 OVMax= 1.10D-06

 SCF Done:  E(UM06L) =  -5263.29069707     A.U. after    3 cycles
            NFock=  3  Conv=0.75D-09     -V/T= 2.0017
 <Sx>= 0.0000 <Sy>= 0.0000 <Sz>= 7.0000 <S**2>=56.0655 S= 7.0044
 <L.S>=  0.00000000000    
 KE= 5.254445816536D+03 PE=-2.196847904195D+04 EE= 6.712492856841D+03
 Annihilation of the first spin contaminant:
 S**2 before annihilation    56.0655,   after    56.0003
 Leave Link  502 at Sun Jan 29 08:04:17 2023, MaxMem= 14763950080 cpu:            1053.5 elap:             531.0
 (Enter /software/commercial/gaussian/g16/AVX2/g16/l508.exe)
 QCSCF skips out because SCF is already converged.
 Leave Link  508 at Sun Jan 29 08:04:17 2023, MaxMem= 14763950080 cpu:               0.0 elap:               0.0
 (Enter /software/commercial/gaussian/g16/AVX2/g16/l801.exe)
 DoSCS=F DFT=T ScalE2(SS,OS)=  1.000000  1.000000
 Range of M.O.s used for correlation:     1   896
 NBasis=   896 NAE=   135 NBE=   121 NFC=     0 NFV=     0
 NROrb=    896 NOA=   135 NOB=   121 NVA=   761 NVB=   775

 **** Warning!!: The largest alpha MO coefficient is  0.24642307D+02


 **** Warning!!: The largest beta MO coefficient is  0.22764428D+02


 **** Warning!!: The smallest beta delta epsilon is  0.15495008D-01

 Leave Link  801 at Sun Jan 29 08:04:17 2023, MaxMem= 14763950080 cpu:               0.1 elap:               0.1
 (Enter /software/commercial/gaussian/g16/AVX2/g16/l1002.exe)
 Minotr:  UHF open shell wavefunction.
          Direct CPHF calculation.
          Differentiating once with respect to electric field.
                with respect to dipole field.
          Electric field/nuclear overlap derivatives assumed to be zero.
          Requested convergence is 1.0D-08 RMS, and 1.0D-07 maximum.
          Secondary convergence is 1.0D-12 RMS, and 1.0D-12 maximum.
          NewPWx=F KeepS1=T KeepF1=T KeepIn=T MapXYZ=F SortEE=F KeepMc=T.
        10455 words used for storage of precomputed grid.
 Two-electron integral symmetry not used.
          MDV=   14763950080 using IRadAn=       1.
          Solving linear equations simultaneously, MaxMat=     384.
          There are     3 degrees of freedom in the 1st order CPHF.  IDoFFX=0 NUNeed=     3.
      3 vectors produced by pass  0 Test12= 6.55D-12 3.33D-08 XBig12= 1.75D+04 7.79D+01.
 AX will form     3 AO Fock derivatives at one time.
 FoFJK:  IHMeth= 1 ICntrl=     500 DoSepK=F KAlg= 0 I1Cent=           0 FoldK=F
 IRaf= 760000000 NMat=       3 IRICut=       1 DoRegI=T DoRafI=F ISym2E= 0 IDoP0=0 IntGTp=1.
 FoFCou: FMM=F IPFlag=           0 FMFlag=      100000 FMFlg1=           0
         NFxFlg=           0 DoJE=T BraDBF=F KetDBF=F FulRan=T
         wScrn=  0.000000 ICntrl=       500 IOpCl=  0 I1Cent=           0 NGrid=           0
         NMat0=    3 NMatS0=      3 NMatT0=    0 NMatD0=    3 NMtDS0=    0 NMtDT0=    0
 Symmetry not used in FoFCou.
      3 vectors produced by pass  1 Test12= 6.55D-12 3.33D-08 XBig12= 1.99D+05 8.61D+01.
      3 vectors produced by pass  2 Test12= 6.55D-12 3.33D-08 XBig12= 1.89D+05 1.07D+02.
      3 vectors produced by pass  3 Test12= 6.55D-12 3.33D-08 XBig12= 1.50D+05 1.04D+02.
      3 vectors produced by pass  4 Test12= 6.55D-12 3.33D-08 XBig12= 1.42D+05 1.68D+02.
      3 vectors produced by pass  5 Test12= 6.55D-12 3.33D-08 XBig12= 1.04D+05 1.22D+02.
      3 vectors produced by pass  6 Test12= 6.55D-12 3.33D-08 XBig12= 5.27D+04 7.10D+01.
      3 vectors produced by pass  7 Test12= 6.55D-12 3.33D-08 XBig12= 2.65D+04 3.80D+01.
      3 vectors produced by pass  8 Test12= 6.55D-12 3.33D-08 XBig12= 1.74D+04 3.83D+01.
      3 vectors produced by pass  9 Test12= 6.55D-12 3.33D-08 XBig12= 8.79D+03 1.90D+01.
      3 vectors produced by pass 10 Test12= 6.55D-12 3.33D-08 XBig12= 4.34D+03 2.24D+01.
      3 vectors produced by pass 11 Test12= 6.55D-12 3.33D-08 XBig12= 2.63D+03 1.24D+01.
      3 vectors produced by pass 12 Test12= 6.55D-12 3.33D-08 XBig12= 2.12D+03 1.13D+01.
      3 vectors produced by pass 13 Test12= 6.55D-12 3.33D-08 XBig12= 1.11D+03 7.89D+00.
      3 vectors produced by pass 14 Test12= 6.55D-12 3.33D-08 XBig12= 4.18D+02 5.21D+00.
      3 vectors produced by pass 15 Test12= 6.55D-12 3.33D-08 XBig12= 1.09D+02 1.63D+00.
      3 vectors produced by pass 16 Test12= 6.55D-12 3.33D-08 XBig12= 4.81D+01 8.58D-01.
      3 vectors produced by pass 17 Test12= 6.55D-12 3.33D-08 XBig12= 1.29D+01 3.46D-01.
      3 vectors produced by pass 18 Test12= 6.55D-12 3.33D-08 XBig12= 3.19D+00 2.65D-01.
      3 vectors produced by pass 19 Test12= 6.55D-12 3.33D-08 XBig12= 3.69D-01 8.76D-02.
      3 vectors produced by pass 20 Test12= 6.55D-12 3.33D-08 XBig12= 3.29D-02 1.85D-02.
      3 vectors produced by pass 21 Test12= 6.55D-12 3.33D-08 XBig12= 2.71D-03 7.64D-03.
      3 vectors produced by pass 22 Test12= 6.55D-12 3.33D-08 XBig12= 2.92D-04 3.26D-03.
      3 vectors produced by pass 23 Test12= 6.55D-12 3.33D-08 XBig12= 2.99D-05 9.31D-04.
      3 vectors produced by pass 24 Test12= 6.55D-12 3.33D-08 XBig12= 3.78D-06 3.53D-04.
      3 vectors produced by pass 25 Test12= 6.55D-12 3.33D-08 XBig12= 4.09D-07 8.74D-05.
      3 vectors produced by pass 26 Test12= 6.55D-12 3.33D-08 XBig12= 3.72D-08 2.21D-05.
      3 vectors produced by pass 27 Test12= 6.55D-12 3.33D-08 XBig12= 3.13D-09 4.05D-06.
      3 vectors produced by pass 28 Test12= 6.55D-12 3.33D-08 XBig12= 3.70D-10 2.51D-06.
      3 vectors produced by pass 29 Test12= 6.55D-12 3.33D-08 XBig12= 4.08D-11 7.86D-07.
      2 vectors produced by pass 30 Test12= 6.55D-12 3.33D-08 XBig12= 3.99D-12 3.08D-07.
      1 vectors produced by pass 31 Test12= 6.55D-12 3.33D-08 XBig12= 3.75D-13 6.30D-08.
 InvSVY:  IOpt=1 It=  1 EMax= 5.68D-14
 Solved reduced A of dimension    93 with     3 vectors.
 End of Minotr F.D. properties file   721 does not exist.
 End of Minotr F.D. properties file   722 does not exist.
 End of Minotr F.D. properties file   788 does not exist.
 Leave Link 1002 at Sun Jan 29 10:29:55 2023, MaxMem= 14763950080 cpu:           17399.9 elap:            8737.8
 (Enter /software/commercial/gaussian/g16/AVX2/g16/l1101.exe)
 Using compressed storage, NAtomX=    34.
 Will process     35 centers per pass.
 Leave Link 1101 at Sun Jan 29 10:29:59 2023, MaxMem= 14763950080 cpu:               3.5 elap:               2.8
 (Enter /software/commercial/gaussian/g16/AVX2/g16/l1102.exe)
 Symmetrizing basis deriv contribution to polar:
 IMax=3 JMax=2 DiffMx= 0.00D+00
 Leave Link 1102 at Sun Jan 29 10:29:59 2023, MaxMem= 14763950080 cpu:               0.2 elap:               0.2
 (Enter /software/commercial/gaussian/g16/AVX2/g16/l1110.exe)
 Forming Gx(P) for the SCF density, NAtomX=    34.
 Integral derivatives from FoFJK, PRISM(SPDF).
 Do as many integral derivatives as possible in FoFJK.
 G2DrvN: MDV=   14763946374.
 G2DrvN: will do    35 centers at a time, making    1 passes.
 PxScal for G2LodP:  IOpCl= 1 ISclPx=1 IMOff=     1 NMtTot=     4 NTT=  401856 ScalPx= 2.67D+00
 Calling FoFCou, ICntrl=  3507 FMM=F I1Cent=   0 AccDes= 0.00D+00.
 FoFJK:  IHMeth= 1 ICntrl=    3507 DoSepK=F KAlg= 0 I1Cent=           0 FoldK=F
 IRaf=         0 NMat=       1 IRICut=       1 DoRegI=T DoRafI=F ISym2E= 0 IDoP0=0 IntGTp=1.
 FoFCou: FMM=F IPFlag=           0 FMFlag=      100000 FMFlg1=           0
         NFxFlg=           0 DoJE=F BraDBF=F KetDBF=F FulRan=T
         wScrn=  0.000000 ICntrl=      3507 IOpCl=  0 I1Cent=           0 NGrid=           0
         NMat0=    1 NMatS0=      1 NMatT0=    0 NMatD0=    4 NMtDS0=    3 NMtDT0=    0
 Symmetry not used in FoFCou.
 End of G2Drv F.D. properties file   721 does not exist.
 End of G2Drv F.D. properties file   722 does not exist.
 End of G2Drv F.D. properties file   788 does not exist.
 Leave Link 1110 at Sun Jan 29 12:45:13 2023, MaxMem= 14763950080 cpu:           16179.4 elap:            8113.3
 (Enter /software/commercial/gaussian/g16/AVX2/g16/l1002.exe)
 Minotr:  UHF open shell wavefunction.
          IDoAtm=1111111111111111111111111111111111
          Direct CPHF calculation.
          Differentiating once with respect to electric field.
                with respect to dipole field.
          Differentiating once with respect to nuclear coordinates.
          Requested convergence is 1.0D-08 RMS, and 1.0D-07 maximum.
          Secondary convergence is 1.0D-12 RMS, and 1.0D-12 maximum.
          NewPWx=T KeepS1=F KeepF1=F KeepIn=T MapXYZ=F SortEE=F KeepMc=T.
        10455 words used for storage of precomputed grid.
 Two-electron integral symmetry not used.
          MDV=   14763950080 using IRadAn=       1.
          Solving linear equations simultaneously, MaxMat=     384.
 FoF2E skips out because all densities are zero.
 CalDSu exits because no D1Ps are significant.
 FoFJK:  IHMeth= 1 ICntrl=     500 DoSepK=F KAlg= 0 I1Cent=           0 FoldK=F
 IRaf= 760000000 NMat=     102 IRICut=       1 DoRegI=T DoRafI=F ISym2E= 0 IDoP0=3 IntGTp=3.
 FoFCou: FMM=F IPFlag=           0 FMFlag=      100000 FMFlg1=           0
         NFxFlg=           0 DoJE=F BraDBF=F KetDBF=F FulRan=T
         wScrn=  0.000000 ICntrl=       500 IOpCl=  0 I1Cent=           0 NGrid=           0
         NMat0=  102 NMatS0=    102 NMatT0=    0 NMatD0=  102 NMtDS0=    0 NMtDT0=    0
 Symmetry not used in FoFCou.
          There are   105 degrees of freedom in the 1st order CPHF.  IDoFFX=5 NUNeed=   105.
 Will reuse    3 saved solutions.
     99 vectors produced by pass  0 Test12= 1.97D-13 1.00D-09 XBig12= 1.60D+00 8.68D-01.
 AX will form    99 AO Fock derivatives at one time.
     99 vectors produced by pass  1 Test12= 1.97D-13 1.00D-09 XBig12= 5.92D+00 5.00D-01.
     99 vectors produced by pass  2 Test12= 1.97D-13 1.00D-09 XBig12= 8.94D-02 6.72D-02.
     99 vectors produced by pass  3 Test12= 1.97D-13 1.00D-09 XBig12= 3.17D-03 5.43D-03.
     99 vectors produced by pass  4 Test12= 1.97D-13 1.00D-09 XBig12= 3.47D-05 6.24D-04.
     99 vectors produced by pass  5 Test12= 1.97D-13 1.00D-09 XBig12= 7.57D-07 7.15D-05.
     99 vectors produced by pass  6 Test12= 1.97D-13 1.00D-09 XBig12= 7.81D-09 5.66D-06.
     95 vectors produced by pass  7 Test12= 1.97D-13 1.00D-09 XBig12= 8.43D-11 6.98D-07.
     32 vectors produced by pass  8 Test12= 1.97D-13 1.00D-09 XBig12= 6.26D-13 4.07D-08.
      1 vectors produced by pass  9 Test12= 1.97D-13 1.00D-09 XBig12= 4.28D-15 5.16D-09.
 InvSVY:  IOpt=1 It=  1 EMax= 2.89D-15
 Solved reduced A of dimension   821 with   105 vectors.
 FullF1:  Do perturbations      1 to       3.
 Isotropic polarizability for W=    0.000000      240.16 Bohr**3.
 FullF1:  Do perturbations      1 to       6.
 End of Minotr F.D. properties file   721 does not exist.
 End of Minotr F.D. properties file   722 does not exist.
 End of Minotr F.D. properties file   788 does not exist.
 Leave Link 1002 at Sun Jan 29 18:17:56 2023, MaxMem= 14763950080 cpu:           39717.2 elap:           19963.0
 (Enter /software/commercial/gaussian/g16/AVX2/g16/l601.exe)
 Copying SCF densities to generalized density rwf, IOpCl= 1 IROHF=0.

 **********************************************************************

            Population analysis using the SCF Density.

 **********************************************************************

 Alpha  occ. eigenvalues -- -255.61751-255.61685-255.61545 -30.06311 -30.06112
 Alpha  occ. eigenvalues --  -30.06003 -25.84013 -25.83884 -25.83678 -25.83123
 Alpha  occ. eigenvalues --  -25.83094 -25.82997 -25.82909 -25.82857 -25.82611
 Alpha  occ. eigenvalues --  -19.08529 -19.02360 -18.97762 -18.97739 -18.97706
 Alpha  occ. eigenvalues --  -18.97702 -18.97667 -18.97647 -18.97627 -18.97614
 Alpha  occ. eigenvalues --  -18.97607 -18.97595 -18.97579 -18.97570 -18.95832
 Alpha  occ. eigenvalues --  -14.40312 -14.27689 -10.17528 -10.17512 -10.17475
 Alpha  occ. eigenvalues --  -10.17427 -10.17350 -10.17245  -3.63212  -3.63060
 Alpha  occ. eigenvalues --   -3.63002  -2.38511  -2.38488  -2.38256  -2.36814
 Alpha  occ. eigenvalues --   -2.36669  -2.36578  -2.36463  -2.36330  -2.36030
 Alpha  occ. eigenvalues --   -1.22716  -1.06458  -1.06214  -1.06132  -1.05900
 Alpha  occ. eigenvalues --   -1.05835  -1.05796  -1.05779  -1.04490  -0.98666
 Alpha  occ. eigenvalues --   -0.98541  -0.98286  -0.98199  -0.98139  -0.98081
 Alpha  occ. eigenvalues --   -0.93405  -0.60780  -0.59140  -0.58114  -0.58028
 Alpha  occ. eigenvalues --   -0.57748  -0.57707  -0.57558  -0.54514  -0.54374
 Alpha  occ. eigenvalues --   -0.53885  -0.49040  -0.48923  -0.48202  -0.47543
 Alpha  occ. eigenvalues --   -0.47456  -0.47215  -0.47191  -0.47041  -0.46984
 Alpha  occ. eigenvalues --   -0.46298  -0.46168  -0.46148  -0.45329  -0.44476
 Alpha  occ. eigenvalues --   -0.43495  -0.43318  -0.42332  -0.42119  -0.41528
 Alpha  occ. eigenvalues --   -0.41180  -0.40220  -0.40168  -0.38664  -0.37799
 Alpha  occ. eigenvalues --   -0.37158  -0.36961  -0.36929  -0.36716  -0.36664
 Alpha  occ. eigenvalues --   -0.36059  -0.35868  -0.35746  -0.35574  -0.34275
 Alpha  occ. eigenvalues --   -0.33621  -0.33515  -0.32901  -0.32535  -0.32286
 Alpha  occ. eigenvalues --   -0.31811  -0.29366  -0.29138  -0.28746  -0.28713
 Alpha  occ. eigenvalues --   -0.28535  -0.28494  -0.28339  -0.28193  -0.27650
 Alpha  occ. eigenvalues --   -0.27499  -0.27288  -0.27258  -0.27096  -0.25110
 Alpha  occ. eigenvalues --   -0.24040  -0.22590  -0.22151  -0.21989  -0.21610
 Alpha virt. eigenvalues --   -0.05571  -0.05068  -0.03606  -0.02960  -0.02891
 Alpha virt. eigenvalues --   -0.02601  -0.01617  -0.01572   0.01892   0.03080
 Alpha virt. eigenvalues --    0.04299   0.07326   0.07757   0.08148   0.08683
 Alpha virt. eigenvalues --    0.08984   0.09141   0.09274   0.09920   0.11148
 Alpha virt. eigenvalues --    0.12443   0.12580   0.13993   0.14625   0.15333
 Alpha virt. eigenvalues --    0.16326   0.16728   0.17021   0.17505   0.18396
 Alpha virt. eigenvalues --    0.18581   0.20696   0.21470   0.21791   0.21871
 Alpha virt. eigenvalues --    0.22879   0.23128   0.23410   0.24066   0.24885
 Alpha virt. eigenvalues --    0.25769   0.26230   0.26431   0.27035   0.27244
 Alpha virt. eigenvalues --    0.27634   0.28233   0.28683   0.29352   0.29692
 Alpha virt. eigenvalues --    0.30163   0.30686   0.30895   0.31101   0.31278
 Alpha virt. eigenvalues --    0.31769   0.32144   0.32757   0.33225   0.34303
 Alpha virt. eigenvalues --    0.34735   0.35487   0.36205   0.36319   0.36941
 Alpha virt. eigenvalues --    0.37541   0.37932   0.38541   0.38796   0.39223
 Alpha virt. eigenvalues --    0.39349   0.39811   0.40104   0.40439   0.40552
 Alpha virt. eigenvalues --    0.41277   0.41333   0.41803   0.41994   0.42059
 Alpha virt. eigenvalues --    0.42779   0.43363   0.43835   0.44020   0.44845
 Alpha virt. eigenvalues --    0.45190   0.45874   0.46118   0.46740   0.47571
 Alpha virt. eigenvalues --    0.47951   0.49310   0.49738   0.49982   0.50362
 Alpha virt. eigenvalues --    0.51775   0.52297   0.52571   0.53136   0.53517
 Alpha virt. eigenvalues --    0.54166   0.54346   0.54524   0.56129   0.56624
 Alpha virt. eigenvalues --    0.57258   0.57524   0.58310   0.59772   0.60354
 Alpha virt. eigenvalues --    0.61363   0.61958   0.62181   0.63025   0.63776
 Alpha virt. eigenvalues --    0.65202   0.65738   0.66451   0.66700   0.67746
 Alpha virt. eigenvalues --    0.67879   0.68176   0.68998   0.69590   0.69705
 Alpha virt. eigenvalues --    0.70737   0.71053   0.71200   0.71533   0.72345
 Alpha virt. eigenvalues --    0.72692   0.73374   0.74187   0.74332   0.74587
 Alpha virt. eigenvalues --    0.75212   0.75764   0.76167   0.76227   0.76612
 Alpha virt. eigenvalues --    0.77167   0.77842   0.78537   0.79313   0.79924
 Alpha virt. eigenvalues --    0.80622   0.81875   0.82364   0.83054   0.84044
 Alpha virt. eigenvalues --    0.84617   0.86240   0.86669   0.87286   0.88870
 Alpha virt. eigenvalues --    0.89220   0.89417   0.90240   0.90495   0.91490
 Alpha virt. eigenvalues --    0.92838   0.93330   0.93726   0.94243   0.94444
 Alpha virt. eigenvalues --    0.95162   0.95618   0.96347   0.97486   0.97619
 Alpha virt. eigenvalues --    0.98570   0.99320   1.00168   1.00928   1.01417
 Alpha virt. eigenvalues --    1.02853   1.03012   1.03936   1.04494   1.04882
 Alpha virt. eigenvalues --    1.05377   1.05692   1.06284   1.07032   1.07272
 Alpha virt. eigenvalues --    1.08010   1.08986   1.09427   1.09872   1.10127
 Alpha virt. eigenvalues --    1.11855   1.12385   1.13159   1.14964   1.16641
 Alpha virt. eigenvalues --    1.19104   1.19898   1.22287   1.23194   1.23298
 Alpha virt. eigenvalues --    1.24953   1.25027   1.25708   1.26341   1.27014
 Alpha virt. eigenvalues --    1.27821   1.28267   1.29626   1.30204   1.33725
 Alpha virt. eigenvalues --    1.34227   1.34502   1.38357   1.38733   1.39727
 Alpha virt. eigenvalues --    1.41320   1.41511   1.42647   1.43172   1.44770
 Alpha virt. eigenvalues --    1.45080   1.46559   1.46810   1.47898   1.48877
 Alpha virt. eigenvalues --    1.49778   1.50959   1.51487   1.52176   1.52966
 Alpha virt. eigenvalues --    1.53529   1.54432   1.56005   1.56766   1.57182
 Alpha virt. eigenvalues --    1.57924   1.58394   1.59113   1.59501   1.60508
 Alpha virt. eigenvalues --    1.61052   1.61502   1.62255   1.62931   1.64365
 Alpha virt. eigenvalues --    1.65184   1.65988   1.67275   1.68180   1.68453
 Alpha virt. eigenvalues --    1.68830   1.69755   1.70577   1.70869   1.72528
 Alpha virt. eigenvalues --    1.72630   1.73033   1.73945   1.74875   1.77603
 Alpha virt. eigenvalues --    1.78728   1.79411   1.80349   1.81929   1.82419
 Alpha virt. eigenvalues --    1.85538   1.86763   1.87814   1.88639   1.88751
 Alpha virt. eigenvalues --    1.90085   1.90657   1.91571   1.92063   1.93142
 Alpha virt. eigenvalues --    1.93602   1.94211   1.94668   1.96011   1.96216
 Alpha virt. eigenvalues --    1.96757   1.98633   1.99466   1.99957   2.00350
 Alpha virt. eigenvalues --    2.01761   2.01949   2.03397   2.04113   2.04415
 Alpha virt. eigenvalues --    2.04842   2.05672   2.06499   2.06940   2.07396
 Alpha virt. eigenvalues --    2.07698   2.09072   2.09396   2.09846   2.10612
 Alpha virt. eigenvalues --    2.10867   2.11170   2.12154   2.12687   2.13890
 Alpha virt. eigenvalues --    2.14454   2.14724   2.14819   2.15705   2.16675
 Alpha virt. eigenvalues --    2.17891   2.18703   2.18868   2.19172   2.19922
 Alpha virt. eigenvalues --    2.20269   2.21164   2.21473   2.21518   2.22885
 Alpha virt. eigenvalues --    2.23591   2.24449   2.25873   2.26508   2.27005
 Alpha virt. eigenvalues --    2.27352   2.28106   2.29611   2.29660   2.30250
 Alpha virt. eigenvalues --    2.30916   2.32536   2.33996   2.34675   2.36288
 Alpha virt. eigenvalues --    2.37741   2.38131   2.39709   2.43382   2.44373
 Alpha virt. eigenvalues --    2.45893   2.46255   2.47144   2.47963   2.48494
 Alpha virt. eigenvalues --    2.52490   2.54667   2.55087   2.56303   2.57694
 Alpha virt. eigenvalues --    2.58005   2.58825   2.64986   2.65151   2.65685
 Alpha virt. eigenvalues --    2.66818   2.67227   2.67840   2.68336   2.68888
 Alpha virt. eigenvalues --    2.70280   2.71318   2.72299   2.73012   2.74929
 Alpha virt. eigenvalues --    2.75357   2.75975   2.80085   2.81748   2.82354
 Alpha virt. eigenvalues --    2.82943   2.84483   2.86672   2.88006   2.89037
 Alpha virt. eigenvalues --    2.89847   2.91234   2.91437   2.95281   2.95446
 Alpha virt. eigenvalues --    2.95778   2.97680   2.98103   2.98326   2.98866
 Alpha virt. eigenvalues --    2.99784   3.01155   3.01375   3.02459   3.03100
 Alpha virt. eigenvalues --    3.03601   3.03863   3.04368   3.04897   3.06221
 Alpha virt. eigenvalues --    3.06367   3.07386   3.07994   3.08265   3.09754
 Alpha virt. eigenvalues --    3.10988   3.11948   3.12451   3.13408   3.13579
 Alpha virt. eigenvalues --    3.14396   3.14977   3.15873   3.16046   3.16128
 Alpha virt. eigenvalues --    3.16504   3.16753   3.17187   3.17321   3.17437
 Alpha virt. eigenvalues --    3.19312   3.20045   3.21263   3.23657   3.24196
 Alpha virt. eigenvalues --    3.24957   3.25380   3.26172   3.27918   3.28220
 Alpha virt. eigenvalues --    3.28693   3.29446   3.30862   3.31202   3.31658
 Alpha virt. eigenvalues --    3.32065   3.32802   3.36731   3.37809   3.39536
 Alpha virt. eigenvalues --    3.40866   3.43006   3.43823   3.44129   3.44695
 Alpha virt. eigenvalues --    3.45312   3.45721   3.46671   3.46777   3.47595
 Alpha virt. eigenvalues --    3.48445   3.48888   3.49456   3.49825   3.50206
 Alpha virt. eigenvalues --    3.50242   3.50552   3.51384   3.51626   3.53009
 Alpha virt. eigenvalues --    3.53371   3.54568   3.55788   3.57265   3.57562
 Alpha virt. eigenvalues --    3.59677   3.60794   3.61884   3.62371   3.63025
 Alpha virt. eigenvalues --    3.64393   3.64690   3.65675   3.65710   3.66460
 Alpha virt. eigenvalues --    3.67118   3.67742   3.69183   3.69436   3.71862
 Alpha virt. eigenvalues --    3.72942   3.74307   3.76032   3.78668   3.80248
 Alpha virt. eigenvalues --    3.80792   3.81135   3.81731   3.82619   3.83634
 Alpha virt. eigenvalues --    3.85009   3.86867   3.87734   3.92148   3.93360
 Alpha virt. eigenvalues --    3.93677   3.94069   3.94593   3.94736   3.94974
 Alpha virt. eigenvalues --    3.95501   3.96249   3.96719   3.97407   3.98203
 Alpha virt. eigenvalues --    3.98432   3.98788   3.99257   3.99462   4.01107
 Alpha virt. eigenvalues --    4.03113   4.05449   4.06027   4.07421   4.08267
 Alpha virt. eigenvalues --    4.12272   4.12966   4.13895   4.14374   4.15586
 Alpha virt. eigenvalues --    4.15910   4.16938   4.18745   4.19218   4.20084
 Alpha virt. eigenvalues --    4.20515   4.22044   4.23106   4.23607   4.23912
 Alpha virt. eigenvalues --    4.25375   4.26063   4.26677   4.30889   4.33955
 Alpha virt. eigenvalues --    4.36730   4.37632   4.41718   4.44184   4.44688
 Alpha virt. eigenvalues --    4.48334   4.48788   4.49723   4.51724   4.52566
 Alpha virt. eigenvalues --    4.53797   4.54939   4.55719   4.56488   4.56842
 Alpha virt. eigenvalues --    4.57777   4.59516   4.65540   4.72115   4.73417
 Alpha virt. eigenvalues --    4.75876   4.98397   5.01711   5.02698   5.17550
 Alpha virt. eigenvalues --    5.21610   5.22935   5.24063   5.24100   5.24249
 Alpha virt. eigenvalues --    5.24315   5.25112   5.25415   5.25803   5.26118
 Alpha virt. eigenvalues --    5.26191   5.26421   5.26561   5.26609   5.26816
 Alpha virt. eigenvalues --    5.27240   5.27466   5.28701   5.28825   5.30116
 Alpha virt. eigenvalues --    5.30375   5.30649   5.31686   5.32349   5.32546
 Alpha virt. eigenvalues --    5.32856   5.33218   5.33717   5.34429   5.34842
 Alpha virt. eigenvalues --    5.36331   5.37527   5.37835   5.40214   5.42029
 Alpha virt. eigenvalues --    5.42738   5.44070   5.44395   5.47805   5.49713
 Alpha virt. eigenvalues --    5.50276   5.52812   5.53700   5.58700   5.58813
 Alpha virt. eigenvalues --    5.59338   5.59608   5.59972   5.61193   5.62095
 Alpha virt. eigenvalues --    5.63282   5.63609   5.64485   5.64647   5.68855
 Alpha virt. eigenvalues --    5.69196   5.69817   5.70096   5.70200   5.70291
 Alpha virt. eigenvalues --    5.70468   5.82149   5.83359   5.88051   5.89079
 Alpha virt. eigenvalues --    5.89646   5.89843   5.92195   5.92874   5.94741
 Alpha virt. eigenvalues --    5.95227   5.96442   6.05625   6.06352   6.07046
 Alpha virt. eigenvalues --    6.08751   6.09943   6.10541   6.11981   6.16516
 Alpha virt. eigenvalues --    6.16774   6.17296   6.17441   6.17524   6.17658
 Alpha virt. eigenvalues --    6.18370   6.18709   6.19951   6.21249   6.21829
 Alpha virt. eigenvalues --    6.26460   6.35999   6.37051   6.40293   6.41477
 Alpha virt. eigenvalues --    6.44214   6.44892   6.46120   6.46931   6.47405
 Alpha virt. eigenvalues --    6.48524   6.48828   6.49140   6.49830   6.49926
 Alpha virt. eigenvalues --    6.51319   6.52506   6.54122   6.54837   6.55904
 Alpha virt. eigenvalues --    6.57466   6.57949   6.58299   6.58385   6.59942
 Alpha virt. eigenvalues --    6.60485   6.60722   6.62705   6.64409   6.64885
 Alpha virt. eigenvalues --    6.65486   6.66696   6.67615   6.67957   6.69341
 Alpha virt. eigenvalues --    6.70542   6.71212   6.74188   6.75556   6.76485
 Alpha virt. eigenvalues --    6.80714   6.85508   6.85876   6.86624   6.87812
 Alpha virt. eigenvalues --    6.88238   6.90199   6.90349   6.90809   6.91327
 Alpha virt. eigenvalues --    6.91425   6.91774   6.92316   6.93366   6.94355
 Alpha virt. eigenvalues --    6.96715   6.97076   6.97653   6.98218   6.98705
 Alpha virt. eigenvalues --    7.01246   7.04694   7.05258   7.06247   7.06652
 Alpha virt. eigenvalues --    7.07883   7.08817   7.11217   7.11514   7.12893
 Alpha virt. eigenvalues --    7.14908   7.23593   7.23854   7.24603   7.25058
 Alpha virt. eigenvalues --    7.25707   7.26294   7.27042   7.27716   7.28523
 Alpha virt. eigenvalues --    7.28647   7.29178   7.30082   7.32721   7.33518
 Alpha virt. eigenvalues --    7.33986   7.36929   7.39336   7.41531   7.43364
 Alpha virt. eigenvalues --    7.43850   7.52803   7.71479  23.22099  23.22459
 Alpha virt. eigenvalues --   23.22524  23.22826  23.23067  23.25490  31.91960
 Alpha virt. eigenvalues --   33.01023  43.68739  43.82064  43.88103  43.93522
 Alpha virt. eigenvalues --   43.97623  43.98234  44.00436  44.11002  44.14137
 Alpha virt. eigenvalues --   44.17640  44.19341  44.29379  44.30739  44.31705
 Alpha virt. eigenvalues --   44.47240
  Beta  occ. eigenvalues -- -255.61574-255.61517-255.61380 -29.95134 -29.94924
  Beta  occ. eigenvalues --  -29.94735 -25.75557 -25.75332 -25.75073 -25.75064
  Beta  occ. eigenvalues --  -25.75048 -25.74894 -25.74866 -25.74817 -25.74683
  Beta  occ. eigenvalues --  -19.08486 -19.02202 -18.97470 -18.97445 -18.97409
  Beta  occ. eigenvalues --  -18.97394 -18.97392 -18.97359 -18.97348 -18.97344
  Beta  occ. eigenvalues --  -18.97336 -18.97274 -18.97256 -18.97249 -18.94115
  Beta  occ. eigenvalues --  -14.40314 -14.27663 -10.17548 -10.17536 -10.17496
  Beta  occ. eigenvalues --  -10.17456 -10.17376 -10.17277  -3.39226  -3.38922
  Beta  occ. eigenvalues --   -3.38646  -2.14271  -2.13915  -2.13448  -2.13444
  Beta  occ. eigenvalues --   -2.13361  -2.13161  -2.13152  -2.13089  -2.12902
  Beta  occ. eigenvalues --   -1.22638  -1.05897  -1.05730  -1.05661  -1.05555
  Beta  occ. eigenvalues --   -1.05335  -1.05252  -1.05174  -1.04153  -0.97974
  Beta  occ. eigenvalues --   -0.97827  -0.97588  -0.97503  -0.97415  -0.97325
  Beta  occ. eigenvalues --   -0.88768  -0.60562  -0.58529  -0.57654  -0.57548
  Beta  occ. eigenvalues --   -0.57170  -0.56965  -0.56905  -0.54292  -0.54180
  Beta  occ. eigenvalues --   -0.53848  -0.47957  -0.47793  -0.46741  -0.46351
  Beta  occ. eigenvalues --   -0.46250  -0.46131  -0.46044  -0.45943  -0.45562
  Beta  occ. eigenvalues --   -0.45409  -0.45322  -0.45232  -0.45150  -0.42498
  Beta  occ. eigenvalues --   -0.41807  -0.41543  -0.41458  -0.40667  -0.39796
  Beta  occ. eigenvalues --   -0.39754  -0.35928  -0.35693  -0.34171  -0.33607
  Beta  occ. eigenvalues --   -0.32960  -0.31128  -0.31075  -0.30906  -0.30230
  Beta  occ. eigenvalues --   -0.29181  -0.28946  -0.28864  -0.28773  -0.28643
  Beta  occ. eigenvalues --   -0.28367  -0.28311  -0.27750  -0.27534  -0.27469
  Beta  occ. eigenvalues --   -0.27338  -0.26669  -0.26595  -0.26560  -0.25214
  Beta  occ. eigenvalues --   -0.17155
  Beta virt. eigenvalues --   -0.15605  -0.15485  -0.15257  -0.15153  -0.15024
  Beta virt. eigenvalues --   -0.14543  -0.14007  -0.11820  -0.11246  -0.08791
  Beta virt. eigenvalues --   -0.08585  -0.07867  -0.07681  -0.07562  -0.05011
  Beta virt. eigenvalues --   -0.04937  -0.02630  -0.02502  -0.02427  -0.02325
  Beta virt. eigenvalues --   -0.01440  -0.01382   0.02197   0.03777   0.04886
  Beta virt. eigenvalues --    0.07770   0.07939   0.08606   0.08813   0.09072
  Beta virt. eigenvalues --    0.09236   0.09355   0.10039   0.11763   0.12798
  Beta virt. eigenvalues --    0.13108   0.14861   0.15965   0.17041   0.17200
  Beta virt. eigenvalues --    0.17713   0.18419   0.18647   0.19033   0.19703
  Beta virt. eigenvalues --    0.21479   0.21734   0.22378   0.22836   0.23040
  Beta virt. eigenvalues --    0.23289   0.23947   0.24583   0.25193   0.26365
  Beta virt. eigenvalues --    0.26771   0.27049   0.27307   0.27861   0.27987
  Beta virt. eigenvalues --    0.28465   0.28740   0.29551   0.30101   0.30298
  Beta virt. eigenvalues --    0.31168   0.31482   0.31750   0.31830   0.32510
  Beta virt. eigenvalues --    0.32637   0.33357   0.33871   0.34599   0.35580
  Beta virt. eigenvalues --    0.35686   0.36509   0.36571   0.37298   0.37907
  Beta virt. eigenvalues --    0.38461   0.39026   0.39189   0.39718   0.39940
  Beta virt. eigenvalues --    0.40262   0.40684   0.40868   0.41383   0.41635
  Beta virt. eigenvalues --    0.41893   0.42041   0.42621   0.42751   0.43183
  Beta virt. eigenvalues --    0.43802   0.43946   0.44516   0.45184   0.45554
  Beta virt. eigenvalues --    0.46223   0.46773   0.47329   0.48084   0.48856
  Beta virt. eigenvalues --    0.49560   0.50021   0.50434   0.51010   0.52101
  Beta virt. eigenvalues --    0.52723   0.53199   0.53641   0.54495   0.55013
  Beta virt. eigenvalues --    0.55297   0.55312   0.56574   0.57076   0.57540
  Beta virt. eigenvalues --    0.57729   0.58616   0.60066   0.60201   0.62131
  Beta virt. eigenvalues --    0.62313   0.62848   0.63503   0.64051   0.65575
  Beta virt. eigenvalues --    0.66028   0.66652   0.66959   0.68056   0.68226
  Beta virt. eigenvalues --    0.68560   0.69615   0.69971   0.70306   0.71220
  Beta virt. eigenvalues --    0.71636   0.71784   0.72047   0.72775   0.73053
  Beta virt. eigenvalues --    0.73886   0.74498   0.74810   0.75052   0.75828
  Beta virt. eigenvalues --    0.76141   0.76734   0.76934   0.77353   0.77757
  Beta virt. eigenvalues --    0.78064   0.78879   0.80166   0.80435   0.81809
  Beta virt. eigenvalues --    0.82822   0.83374   0.84202   0.84856   0.85253
  Beta virt. eigenvalues --    0.87087   0.87114   0.87826   0.89329   0.90717
  Beta virt. eigenvalues --    0.91163   0.91207   0.91939   0.92735   0.93771
  Beta virt. eigenvalues --    0.94262   0.94552   0.95523   0.95943   0.96317
  Beta virt. eigenvalues --    0.97006   0.97245   0.97963   0.98577   0.99236
  Beta virt. eigenvalues --    1.00295   1.01373   1.01824   1.02554   1.03972
  Beta virt. eigenvalues --    1.04629   1.04895   1.05406   1.05707   1.06388
  Beta virt. eigenvalues --    1.06829   1.07879   1.08850   1.08932   1.09439
  Beta virt. eigenvalues --    1.10210   1.10694   1.11223   1.12567   1.13579
  Beta virt. eigenvalues --    1.14197   1.14633   1.16125   1.17969   1.19706
  Beta virt. eigenvalues --    1.20797   1.23251   1.24201   1.24280   1.25353
  Beta virt. eigenvalues --    1.26193   1.26392   1.27091   1.28086   1.28151
  Beta virt. eigenvalues --    1.28785   1.30508   1.31306   1.34716   1.35166
  Beta virt. eigenvalues --    1.35434   1.39064   1.39123   1.40731   1.41889
  Beta virt. eigenvalues --    1.42129   1.43906   1.44105   1.45661   1.46262
  Beta virt. eigenvalues --    1.47495   1.48014   1.48536   1.49403   1.50150
  Beta virt. eigenvalues --    1.51690   1.52237   1.53020   1.53739   1.54479
  Beta virt. eigenvalues --    1.54994   1.56990   1.57441   1.57934   1.58600
  Beta virt. eigenvalues --    1.59073   1.59803   1.60014   1.60871   1.61355
  Beta virt. eigenvalues --    1.62131   1.62604   1.63197   1.64530   1.65685
  Beta virt. eigenvalues --    1.66449   1.67927   1.68608   1.68916   1.69266
  Beta virt. eigenvalues --    1.70228   1.71328   1.71451   1.73130   1.73322
  Beta virt. eigenvalues --    1.73734   1.74710   1.75462   1.77871   1.79754
  Beta virt. eigenvalues --    1.79919   1.81020   1.82775   1.82853   1.86188
  Beta virt. eigenvalues --    1.87562   1.88690   1.88920   1.89392   1.91487
  Beta virt. eigenvalues --    1.92184   1.92640   1.93225   1.94003   1.94276
  Beta virt. eigenvalues --    1.95031   1.95482   1.96666   1.97009   1.97560
  Beta virt. eigenvalues --    1.99749   2.00026   2.01186   2.01300   2.02632
[...]
 0.02294315,0.00847950,-0.00003581,-0.00125150,-0.00565992,-0.00271979,
 0.00151764,0.00184980,0.00014757,-0.00164243,-0.00077818,-0.00135660,-
 0.00154985,-0.00096100,0.00119642,-0.00132977,-0.00040642,-0.00009372,
 0.00139038,-0.00120647,0.00000329,0.00289472,-0.00024377,0.00049746,-0
 .00003940,-0.00073072,-0.00063895,0.00264198,0.00013690,-0.00049364,-0
 .00005440,-0.00073892,0.00060027,0.89955185,1.28974642,-0.00007090,-0.
 00005349,0.00001236,-0.00044324,-0.00020968,-0.00048319,-0.00005728,0.
 00010991,0.00004199,-0.00002389,-0.00003215,-0.00002244,-0.00001522,-0
 .00004867,-0.00007604,0.00003070,-0.00005545,-0.00003906,0.00001064,0.
 00006065,0.00002806,0.00001069,-0.00000023,-0.00000920,0.00086451,-0.0
 0081231,-0.00011426,-0.00000477,0.00003486,-0.00000256,0.00005821,0.00
 003684,-0.00003437,-0.00003412,-0.00004353,-0.00001010,0.00000082,-0.0
 0000063,0.00000303,0.00065461,0.00027879,-0.00053450,0.00015784,0.0000
 8942,0.00000829,-0.00011433,-0.00020167,0.00006515,0.00002478,0.000053
 60,-0.00002569,-0.00105651,0.00028249,0.00161001,-0.00087062,0.0003141
 9,-0.00028578,0.00006377,0.00003219,0.00083036,-0.00129618,0.00064007,
 -0.00067064,0.00118900,-0.00069409,-0.00059933,-0.00005105,-0.00002445
 ,0.00000890,0.00002896,-0.00003485,-0.00022302,0.00139399,-0.00172186,
 -0.00020693,-0.00001826,-0.00006784,-0.00000443,-0.00119727,0.00178073
 ,-0.00019151,0.00000895,0.00000151,0.00004881,0.04139581,0.05247983,0.
 14012994,-0.00061853,-0.00013279,-0.00000294,-0.00095469,-0.00040156,-
 0.00059873,0.00085194,0.00058085,0.00039700,-0.00000736,-0.00006665,-0
 .00004181,-0.00010814,0.00005976,0.00010443,-0.00010710,0.00007287,0.0
 0009654,0.00006888,-0.00007429,-0.00009849,-0.00003211,0.00000429,0.00
 003978,0.00046888,0.00072787,-0.00022065,-0.00010813,0.00011299,-0.000
 11811,-0.00009147,0.00008186,-0.00007836,0.00006120,-0.00011487,0.0000
 8732,-0.00003150,0.00001152,-0.00003681,-0.00093098,-0.00038561,0.0004
 8822,-0.00057742,-0.00015980,-0.00003544,0.00080030,0.00058185,-0.0002
 6225,-0.00000907,-0.00007222,0.00003748,0.00565669,-0.00310829,-0.0000
 6087,0.00039338,0.00062846,0.00028336,-0.00047546,-0.00047244,-0.00004
 603,0.00066724,0.00001247,0.00038637,0.00059589,0.00009936,-0.00032948
 ,0.00043222,0.00002683,0.00003536,-0.00027624,0.00035496,-0.00000658,-
 0.00076237,0.00043368,-0.00008394,-0.00000815,0.00013044,0.00015606,-0
 .00067221,0.00022708,0.00013125,-0.00000796,0.00013893,-0.00015506,-0.
 50342034,-0.55637972,-0.02565141,0.50375320,-0.00079004,-0.00020634,-0
 .00005956,-0.00136952,-0.00075758,-0.00104312,0.00111078,0.00074928,0.
 00049984,-0.00003604,-0.00012595,-0.00006810,-0.00012656,0.00007972,0.
 00013869,-0.00012309,0.00008539,0.00009588,0.00007370,-0.00009162,-0.0
 0011371,-0.00004512,0.00000306,0.00005582,0.00146619,0.00166495,-0.000
 35468,-0.00012362,0.00015929,-0.00013605,-0.00008095,0.00012149,-0.000
 08378,0.00004863,-0.00017070,0.00009273,-0.00004390,0.00001474,-0.0000
 5194,-0.00132835,-0.00070888,0.00085184,-0.00071064,-0.00024545,0.0000
 2255,0.00101011,0.00073135,-0.00030974,-0.00003564,-0.00013350,0.00005
 930,0.00864250,-0.00504243,-0.00008207,0.00169851,0.00154406,0.0003975
 2,-0.00097116,-0.00076842,-0.00007742,0.00120719,-0.00004797,0.0006472
 5,0.00112403,0.00007426,-0.00057846,0.00055749,0.00018268,0.00005791,-
 0.00063207,0.00055115,-0.00001830,-0.00158727,0.00104082,0.00014561,-0
 .00004122,0.00023593,0.00022877,-0.00145184,0.00079294,-0.00006943,-0.
 00002764,0.00024706,-0.00022126,-0.55985970,-0.78400369,-0.03277814,0.
 60357556,0.81348605,0.00014383,0.00000409,-0.00005301,0.00022981,0.000
 13369,0.00009198,-0.00014433,-0.00009587,-0.00003923,0.00000595,0.0000
 0452,0.00000782,-0.00000106,0.00001273,0.00001328,-0.00001105,0.000015
 82,0.00000457,0.00000098,-0.00001796,-0.00000956,-0.00000248,-0.000000
 43,0.00000356,-0.00036067,-0.00025006,0.00004905,0.00000266,-0.0000053
 1,-0.00000669,-0.00000918,-0.00000576,0.00000403,0.00000406,0.00000742
 ,0.00000072,-0.00000147,0.00000074,-0.00000097,-0.00034572,-0.00018169
 ,0.00014143,-0.00019707,-0.00003038,-0.00006043,0.00023290,0.00016422,
 -0.00003815,-0.00000907,-0.00001755,0.00001046,0.00034085,-0.00023884,
 0.00038087,0.00054302,0.00036800,0.00008829,-0.00004229,-0.00002070,-0
 .00008794,0.00015368,-0.00003246,0.00013055,-0.00006467,0.00003444,0.0
 0008643,0.00001735,0.00000773,0.00008696,-0.00001356,0.00002112,0.0000
 0889,-0.00032604,0.00018485,-0.00007180,-0.00003073,0.00004362,0.00002
 515,0.00020692,-0.00012794,-0.00007300,0.00002022,-0.00002403,0.000003
 00,-0.02576155,-0.03275770,-0.07222247,0.02767613,0.03565900,0.0383748
 3,-0.00035787,-0.00059642,-0.00044234,-0.00259822,-0.00227814,-0.00232
 317,0.00060283,0.00073081,0.00053901,-0.00007192,-0.00024455,-0.000211
 29,-0.00046011,0.00005778,0.00046476,-0.00043710,0.00012023,0.00032598
 ,0.00032048,-0.00007049,-0.00034985,-0.00012230,0.00001748,0.00013438,
 -0.00184504,0.00733831,-0.00448459,-0.00043428,0.00028247,-0.00041940,
 -0.00038257,0.00017705,-0.00038461,0.00028662,-0.00024907,0.00035137,-
 0.00011599,0.00003947,-0.00012520,-0.00248206,-0.00218393,0.00198053,-
 0.00044624,-0.00060701,0.00031569,0.00069613,0.00078773,-0.00038104,-0
 .00008366,-0.00026747,0.00019369,0.00573436,0.00086283,0.00020517,-0.0
 0174777,0.00730040,0.00487491,-0.00017042,-0.00139658,-0.00009334,0.00
 006198,0.00127937,0.00061150,0.00009758,0.00130293,-0.00053400,0.00095
 579,0.00099517,0.00008147,-0.00157658,0.00084910,0.00004160,-0.0007551
 6,-0.00195151,-0.00072668,0.00007302,0.00069502,0.00051319,-0.00064889
 ,-0.00200407,0.00060102,0.00008192,0.00068958,-0.00046571,-0.32710954,
 -0.32710937,-0.01498789,-0.00454594,-0.05113577,-0.00226406,0.33762611
 ,-0.00112020,-0.00021793,-0.00002164,-0.00246065,-0.00121736,-0.001535
 95,0.00136085,0.00088398,0.00057806,-0.00000342,-0.00013627,-0.0000648
 1,-0.00022749,0.00009680,0.00021996,-0.00020194,0.00014372,0.00015473,
 0.00014213,-0.00012239,-0.00018006,-0.00006629,0.00000452,0.00007889,0
 .00170594,-0.00001412,0.00059578,-0.00020496,0.00023944,-0.00020151,-0
 .00017230,0.00015352,-0.00015939,0.00011200,-0.00022493,0.00016058,-0.
 00006321,0.00001953,-0.00007436,-0.00239766,-0.00116262,0.00126976,-0.
 00111188,-0.00028110,-0.00007103,0.00134654,0.00093140,-0.00037000,-0.
 00000635,-0.00014622,0.00006148,0.01272241,-0.00454168,0.00020801,0.00
 158373,0.00026937,-0.00039791,-0.00072864,-0.00082063,-0.00006007,0.00
 065316,0.00053640,0.00067026,0.00064112,0.00058959,-0.00059707,0.00080
 129,0.00003756,0.00005021,-0.00047306,0.00032001,-0.00002625,-0.000707
 87,-0.00052297,-0.00075144,0.00002199,0.00026575,0.00034632,-0.0006431
 4,-0.00062359,0.00069227,0.00003218,0.00026390,-0.00032426,-0.33077319
 ,-0.50093533,-0.01941980,-0.04647185,-0.02941449,-0.00285660,0.3667233
 5,0.53568855,-0.00044258,0.00000249,0.00012963,-0.00123843,-0.00082740
 ,-0.00056116,0.00045755,0.00025466,0.00013121,-0.00000786,-0.00000900,
 -0.00002030,0.00000493,0.00001280,0.00005309,-0.00000261,0.00002389,0.
 00004195,-0.00000900,-0.00001936,-0.00001133,-0.00000849,0.00000062,0.
 00000371,-0.00207915,0.00356635,-0.00172068,-0.00002302,-0.00001204,0.
 00000535,-0.00004360,-0.00000051,0.00002214,0.00003325,0.00000632,0.00
 001917,-0.00000029,0.00000042,-0.00000556,0.00090556,0.00063967,-0.000
 26419,0.00036061,-0.00000538,0.00017576,-0.00035951,-0.00022077,0.0000
 1710,0.00000852,-0.00000334,-0.00000966,0.00064466,0.00004172,-0.00182
 075,0.00201775,-0.00325110,-0.00168416,-0.00003350,-0.00003182,-0.0006
 7528,0.00092483,-0.00054560,0.00040393,-0.00087122,0.00058615,0.000372
 41,0.00005887,0.00002580,-0.00027833,-0.00002547,0.00002484,0.00016226
 ,-0.00039578,0.00109810,0.00021119,0.00001776,-0.00007794,-0.00004080,
 0.00035536,-0.00119586,0.00019460,-0.00001080,0.00011573,-0.00006991,-
 0.01507822,-0.01933426,-0.06703507,-0.00207931,-0.00288733,0.03315541,
 0.01693851,0.02203597,0.03909718,-0.00302592,0.00052909,0.00310722,-0.
 00044056,0.00034675,0.00081681,0.00077327,-0.00064495,-0.00054098,-0.0
 0026558,0.00026881,0.00010834,0.00183331,0.00180365,-0.00089674,0.0029
 2557,-0.00011489,-0.00009153,0.00011806,-0.00348185,-0.00075283,0.0000
 6867,-0.00012933,-0.00029113,-0.00004541,-0.00022484,0.00029085,0.0013
 0961,0.00114976,-0.00022613,0.00154911,0.00122659,0.00093866,-0.000353
 03,-0.00243908,0.00001010,0.00007218,-0.00009982,0.00020122,-0.0034438
 1,-0.00114230,0.00026542,-0.01556629,0.00073222,-0.00939364,0.00477660
 ,-0.00125663,0.00187265,-0.00059492,0.00037364,-0.00043127,0.00204798,
 0.00021282,-0.00101187,-0.00012853,-0.00031479,-0.00031552,-0.00175362
 ,0.00018916,0.00008512,-0.00010859,-0.00034275,-0.00015565,-0.00023468
 ,-0.00022063,0.00011407,-0.02001790,-0.00899689,0.00025822,-0.00177856
 ,-0.00072168,0.00006921,-0.00005483,0.00033449,0.00025302,-0.00007092,
 -0.00005584,-0.00010699,0.00001679,0.00018710,-0.00020189,-0.00006412,
 -0.00005473,0.00009767,0.00052574,0.00054843,0.00002079,-0.00016099,-0
 .00020160,-0.00001300,-0.00052568,-0.00032126,-0.00000209,0.34831153,0
 .00130406,0.00140115,-0.00020010,0.00126669,0.00160448,0.00111436,-0.0
 0252383,-0.00048818,-0.00000776,-0.00008803,0.00006932,0.00020410,-0.0
 0132262,-0.00364114,0.00037331,0.00052890,-0.01576331,-0.00967024,-0.0
 0126279,0.00508432,0.00194710,0.00036253,-0.00059534,-0.00043528,-0.00
 037074,-0.00024794,0.00025460,0.00062827,-0.00340967,0.00318288,0.0002
 0248,-0.00064411,0.00062195,-0.00062395,0.00115759,-0.00042798,0.00026
 322,-0.00028549,0.00009863,0.00168855,0.00174803,-0.00095957,0.0000025
 6,0.00305507,-0.00021819,-0.00326281,0.00008081,-0.00059102,-0.0001450
 9,0.00006411,-0.00029245,0.00091191,-0.00183040,-0.00000436,-0.0004962
 8,-0.00013085,-0.00033194,0.00054792,0.00204508,-0.00095541,-0.0004503
 5,-0.00018473,-0.00047120,-0.00033419,-0.00015396,0.00045890,-0.009224
 39,-0.01907048,0.00025114,-0.00118607,-0.00211981,0.00003798,0.0004424
 8,0.00003871,0.00035591,-0.00007258,-0.00008035,-0.00010260,0.00032167
 ,0.00008729,-0.00031454,-0.00006378,-0.00007250,0.00009475,0.00032981,
 0.00037989,0.00001230,-0.00009623,-0.00015384,-0.00000563,-0.00047743,
 -0.00020045,-0.00001101,-0.29041864,0.37772032,0.00289739,-0.00010566,
 -0.00139201,0.00105067,0.00051808,0.00061338,-0.00191405,-0.00020884,-
 0.00012935,0.00013626,-0.00005316,-0.00003351,-0.00155171,-0.00237684,
 0.00041773,0.00055038,-0.00742469,-0.00101015,-0.00043673,0.00324551,0
 .00190123,0.00000130,-0.00007980,-0.00015523,-0.00004043,-0.00007801,0
 .00012868,-0.00001773,0.00294209,-0.00118759,0.00057918,0.00106002,0.0
 0087802,-0.00031995,-0.00195509,-0.00033357,-0.00003443,0.00012489,-0.
 00004174,-0.00223518,-0.00147030,0.00059600,-0.00719548,0.00036557,-0.
 00081898,0.00302447,-0.00032853,0.00164859,-0.00004812,-0.00001724,-0.
 00015264,-0.00036874,0.00055066,-0.00118555,-0.00009598,-0.00009551,0.
 00000982,0.00035514,0.00012679,-0.00128662,-0.00004306,-0.00007584,0.0
 0002149,0.00000811,-0.00006929,0.00016868,0.00492024,0.00479882,-0.008
 49387,0.00112072,0.00071313,0.00071402,0.00007136,0.00009958,0.0000487
 3,0.00001488,0.00000782,0.00000580,0.00002017,0.00004762,-0.00005199,0
 .00000225,-0.00000395,-0.00000683,-0.00003714,0.00000043,-0.00000738,-
 0.00000987,-0.00001421,-0.00000778,0.00004075,-0.00000679,0.00002542,-
 0.03408354,-0.02917510,0.44019041,-0.00049892,-0.00010266,0.00011253,-
 0.00022109,-0.00034554,-0.00029175,0.00050742,0.00018574,0.00014838,-0
 .00002066,-0.00002179,-0.00003556,0.00054239,0.00135202,0.00018956,-0.
 00205917,0.00299279,0.00157882,0.00045619,-0.00120515,-0.00093977,-0.0
 0018619,0.00031546,0.00023772,0.00011356,0.00015843,-0.00012057,-0.000
 59495,-0.00002463,-0.00043091,-0.00050513,-0.00019919,-0.00062722,0.00
 051171,0.00048011,0.00031381,-0.00009946,0.00006927,-0.00007688,0.0005
 6352,0.00024606,-0.00002392,0.00081150,-0.00039869,-0.00055349,-0.0009
 3621,-0.00017530,-0.00053773,0.00001335,-0.00001296,0.00010498,-0.0001
 4087,-0.00001753,0.00027773,0.00014561,0.00014765,0.00010815,0.0001304
 2,-0.00060881,0.00050559,0.00012198,0.00009669,0.00019610,0.00009525,0
 .00010428,-0.00022273,-0.00858774,-0.00327233,0.00705685,-0.00013435,0
 .00039353,-0.00023340,-0.00011963,-0.00008668,-0.00014362,0.00002844,0
 .00002934,0.00003749,-0.00008340,-0.00008523,0.00012957,0.00002818,0.0
 0002898,-0.00003688,-0.00017208,-0.00022588,-0.00000627,0.00006423,0.0
 0009336,0.00000537,0.00020586,0.00013172,0.00000013,-0.17126420,0.1500
 9698,0.14437435,0.19500250,-0.00113829,-0.00035080,0.00062202,-0.00054
 690,-0.00052939,-0.00030173,0.00099156,0.00018214,-0.00002161,-0.00004
 077,0.00001921,-0.00004324,0.00272000,0.00495278,-0.00138289,0.0011478
 3,0.00388535,0.00281174,0.00072324,-0.00901555,-0.00299506,-0.00015465
 ,0.00027368,0.00026383,0.00014683,0.00011474,-0.00012206,0.00035706,0.
 00020027,-0.00091743,0.00016532,0.00017517,-0.00035358,0.00023011,-0.0
 0071914,0.00053571,-0.00008249,0.00003057,0.00003376,-0.00077475,-0.00
 071397,0.00028033,-0.00141746,-0.00062952,-0.00086199,0.00114999,0.000
 27389,0.00013591,-0.00004486,0.00003108,0.00006914,0.00009823,0.000466
 81,-0.00000053,0.00020321,-0.00003187,0.00006756,-0.00174494,-0.000593
 63,0.00143322,0.00037334,-0.00000367,0.00009634,0.00012601,0.00004364,
 -0.00021972,-0.00544408,0.00657023,0.00538524,-0.00011484,-0.00030043,
 -0.00042331,-0.00031074,0.00009721,-0.00012672,0.00001283,0.00001678,0
 .00003101,-0.00012188,-0.00003547,0.00011195,0.00002019,0.00002424,-0.
 00002189,-0.00007259,-0.00009505,-0.00000081,0.00002464,0.00004316,0.0
 0000127,0.00012670,0.00004765,-0.00000037,0.14659749,-0.15146550,-0.11
 896715,-0.16163530,0.16200905,0.00033897,-0.00006177,-0.00020761,0.000
 08753,0.00003970,-0.00005232,-0.00010078,0.00008985,0.00004635,0.00002
 598,-0.00002380,-0.00000427,0.00126626,0.00182132,-0.00043211,0.000092
 63,0.00113920,-0.00156752,0.00002236,-0.00326412,-0.00155232,0.0000087
 3,-0.00004353,0.00006803,-0.00004999,0.00000984,-0.00002328,-0.0005397
 9,-0.00117273,0.00039703,-0.00045372,-0.00079253,-0.00049563,0.0001385
 1,0.00162630,0.00008219,0.00001415,-0.00001208,-0.00002391,-0.00009262
 ,0.00011558,0.00007186,-0.00062487,-0.00065084,-0.00099097,-0.00005704
 ,-0.00018846,-0.00004173,-0.00003423,0.00003280,-0.00002974,-0.0000740
 0,0.00001112,0.00007235,-0.00002578,-0.00010194,-0.00006081,-0.0004319
 4,0.00025471,0.00095011,0.00010371,-0.00003545,-0.00015504,-0.00004308
 ,-0.00000434,0.00002218,0.00450816,0.00173232,0.00046888,0.00011569,-0
 .00036891,-0.00028578,-0.00004097,0.00006918,0.00004742,-0.00001103,-0
 .00001456,-0.00000336,0.00007152,-0.00001823,-0.00002437,0.00000121,-0
 .00000211,0.00000351,0.00000880,0.00003500,0.00001023,-0.00000994,-0.0
 0001990,-0.00000272,-0.00002253,-0.00002020,-0.00000488,0.18626908,-0.
 15634647,-0.22258104,-0.16994139,0.13716987,0.21185001,0.00021185,0.00
 042322,-0.00082956,0.00018756,0.00018186,-0.00025589,-0.00069526,0.000
 16325,0.00048703,0.00002813,-0.00007747,0.00002310,-0.00072802,-0.0007
 7512,0.00031250,-0.00061274,-0.00142235,-0.00089615,0.00030307,0.00115
 664,0.00012327,0.00002462,-0.00004708,0.00006627,-0.00000850,0.0001013
 6,-0.00013396,-0.00032729,-0.00116181,0.00061190,-0.00055050,-0.000564
 83,-0.00035120,0.00018866,0.00102979,0.00004652,0.00001571,-0.00004267
 ,-0.00004210,0.00463040,0.00247133,-0.00138163,0.00456687,0.00153940,0
 .00283521,-0.00841135,0.00071892,-0.00264265,0.00024980,-0.00015180,0.
 00024719,-0.00045544,-0.00158831,0.00129306,-0.00002022,0.00029061,0.0
 0002571,0.00052994,0.00021362,0.00000423,-0.00003937,0.00013996,0.0000
 3825,0.00009317,0.00009952,-0.00009453,0.00621574,-0.00560804,0.005171
 42,-0.00049031,-0.00025640,-0.00041615,0.00009969,-0.00023857,-0.00009
 524,0.00001356,0.00000684,0.00003003,-0.00001434,-0.00007488,0.0000715
 6,0.00002109,0.00001624,-0.00002282,-0.00022195,-0.00027717,-0.0000148
 9,0.00009212,0.00011371,0.00001426,0.00017465,0.00017696,-0.00001737,-
 0.14443028,0.15352180,-0.11073545,-0.01371807,0.01842997,-0.02051959,0
 .15307701,-0.00011767,-0.00053207,-0.00036697,-0.00025318,-0.00049937,
 -0.00062062,0.00055737,0.00047778,0.00029840,0.00005725,-0.00009322,-0
 .00007724,0.00022657,0.00048688,-0.00000132,-0.00035549,0.00068408,-0.
 00068425,-0.00019108,-0.00080984,-0.00050974,-0.00001235,0.00000307,0.
 00009776,0.00007347,0.00006947,-0.00016500,-0.00005984,-0.00047507,0.0
 0014279,-0.00031910,-0.00022875,-0.00025064,0.00014488,0.00049958,0.00
 013639,-0.00001809,-0.00002256,-0.00003307,0.00125949,0.00046130,0.000
 17495,0.00326806,-0.00174624,0.00161408,-0.00108822,0.00045686,-0.0008
 6420,0.00029552,-0.00018228,0.00023141,-0.00053128,0.00021085,0.000508
 06,0.00008931,0.00008092,0.00013827,-0.00002625,0.00010221,0.00027050,
 0.00015337,0.00009813,0.00005250,0.00014946,0.00008054,-0.00008820,-0.
 00315129,-0.00825230,0.00655062,0.00018502,-0.00029978,-0.00023527,-0.
 00006411,-0.00007864,-0.00010964,0.00002494,0.00002224,0.00004037,-0.0
 0006439,-0.00004493,0.00009782,0.00002558,0.00002580,-0.00003780,-0.00
 017329,-0.00016479,-0.00000773,0.00005002,0.00006346,0.00000564,0.0001
 9602,0.00009040,-0.00000246,0.15668252,-0.19399814,0.14790500,0.011495
 28,-0.01497363,0.01899516,-0.16850851,0.21848804,-0.00104432,-0.000560
 93,0.00035135,-0.00071546,-0.00040865,-0.00038859,0.00146658,0.0001156
 7,-0.00000255,-0.00000783,0.00002055,-0.00002936,0.00010720,-0.0000631
 7,0.00012146,-0.00077359,-0.00063051,-0.00094053,-0.00016893,-0.000119
 57,-0.00007994,0.00002831,-0.00002152,-0.00002633,0.00002052,-0.000012
 51,0.00000282,-0.00012705,0.00045664,-0.00033644,0.00002124,0.00016435
 ,-0.00008742,0.00015395,-0.00021076,0.00007875,-0.00003255,0.00003693,
 -0.00000299,0.00171229,0.00115477,-0.00047452,0.00147560,0.00029296,-0
 .00128476,-0.00300930,0.00002151,-0.00131895,-0.00005134,0.00001471,0.
 00006277,0.00018928,-0.00045825,0.00084086,0.00000453,0.00009548,-0.00
 012201,0.00002812,-0.00035124,0.00004788,-0.00008044,-0.00001254,0.000
 01729,0.00001352,-0.00002213,-0.00008344,0.00135716,0.00405987,0.00046
 180,-0.00016627,0.00040291,-0.00021837,0.00001684,-0.00003966,0.000016
 11,-0.00000967,-0.00000700,-0.00000688,-0.00005369,0.00004925,0.000004
 44,0.00000067,0.00000425,0.00000428,0.00000668,-0.00002130,0.00000085,
 0.00000676,0.00001451,0.00000646,0.00000217,0.00001686,-0.00001945,-0.
 14626363,0.19151294,-0.20849216,0.01884494,-0.02228883,0.01444924,0.12
 704769,-0.17320558,0.19744833\\-0.00000122,-0.00001158,0.00001276,-0.0
 0001128,-0.00001884,0.00000931,-0.00000125,0.00000599,0.00000634,-0.00
 000397,-0.00000432,0.00000040,-0.00001005,-0.00000528,-0.00002334,0.00
 000767,-0.00001053,0.00002650,0.00001810,0.00001366,0.00000901,-0.0000
 0162,0.00000338,0.00000360,0.00002585,-0.00001302,-0.00001324,-0.00002
 138,-0.00000204,0.00003239,0.00002972,0.00001153,-0.00003324,-0.000010
 02,-0.00001237,0.00000750,-0.00000341,0.00000114,-0.00000010,0.0000055
 7,0.00000937,0.00000700,-0.00001964,-0.00000678,0.00000156,0.00001660,
 0.00000769,0.00000395,-0.00000511,-0.00000006,0.00000448,-0.00001088,0
 .00000198,0.00000486,-0.00000733,0.00000826,-0.00000304,-0.00000470,0.
 00001733,-0.00004397,-0.00001010,0.00000202,0.00000643,0.00001166,-0.0
 0001985,0.00000414,0.00007045,-0.00004614,0.00005029,-0.00002814,0.000
 02199,-0.00001216,0.00001615,0.00000080,-0.00001118,0.00000366,-0.0000
 0100,-0.00000564,-0.00000663,-0.00000006,-0.00001014,-0.00000082,-0.00
 000702,0.00000028,0.00001112,0.00001737,-0.00000598,0.00007407,0.00011
 072,-0.00001694,-0.00009435,-0.00011653,-0.00001742,-0.00002465,0.0000
 3330,-0.00000815,-0.00000223,0.00000824,0.00000408,-0.00001183,0.00000
 064,0.00000964\\\@
 The archive entry for this job was punched.


 Children are likely to live up to what you believe of them.
 -- Lady Bird Johnson
 Job cpu time:       1 days  2 hours 11 minutes  6.6 seconds.
 Elapsed time:       0 days 13 hours  8 minutes 54.1 seconds.
 File lengths (MBytes):  RWF=   5200 Int=      0 D2E=      0 Chk=    142 Scr=      1
 Normal termination of Gaussian 16 at Sun Jan 29 21:04:20 2023.
