 Entering Gaussian System, Link 0=g16
 Input=FeFeFe-A-0xH2O-broken-V03-opt.gjf
 Output=FeFeFe-A-0xH2O-broken-V03-opt.log
 Initial command:
 /software/commercial/gaussian/g16/AVX2/g16/l1.exe "/scratch1/svicchi/G09-345653.pbs02/Gau-619291.inp" -scrdir="/scratch1/svicchi/G09-345653.pbs02/"
 Entering Link 1 = /software/commercial/gaussian/g16/AVX2/g16/l1.exe PID=    619292.
  
 Copyright (c) 1988-2021, Gaussian, Inc.  All Rights Reserved.
  
 This is part of the Gaussian(R) 16 program.  It is based on
 the Gaussian(R) 09 system (copyright 2009, Gaussian, Inc.),
 the Gaussian(R) 03 system (copyright 2003, Gaussian, Inc.),
 the Gaussian(R) 98 system (copyright 1998, Gaussian, Inc.),
 the Gaussian(R) 94 system (copyright 1995, Gaussian, Inc.),
 the Gaussian 92(TM) system (copyright 1992, Gaussian, Inc.),
 the Gaussian 90(TM) system (copyright 1990, Gaussian, Inc.),
 the Gaussian 88(TM) system (copyright 1988, Gaussian, Inc.),
 the Gaussian 86(TM) system (copyright 1986, Carnegie Mellon
 University), and the Gaussian 82(TM) system (copyright 1983,
 Carnegie Mellon University). Gaussian is a federally registered
 trademark of Gaussian, Inc.
  
 This software contains proprietary and confidential information,
 including trade secrets, belonging to Gaussian, Inc.
  
 This software is provided under written license and may be
 used, copied, transmitted, or stored only in accord with that
 written license.
  
 The following legend is applicable only to US Government
 contracts under FAR:
  
                    RESTRICTED RIGHTS LEGEND
  
 Use, reproduction and disclosure by the US Government is
 subject to restrictions as set forth in subparagraphs (a)
 and (c) of the Commercial Computer Software - Restricted
 Rights clause in FAR 52.227-19.
  
 Gaussian, Inc.
 340 Quinnipiac St., Bldg. 40, Wallingford CT 06492
  
  
 ---------------------------------------------------------------
 Warning -- This program may not be used in any manner that
 competes with the business of Gaussian, Inc. or will provide
 assistance to any competitor of Gaussian, Inc.  The licensee
 of this program is prohibited from giving any competitor of
 Gaussian, Inc. access to this program.  By using this program,
 the user acknowledges that Gaussian, Inc. is engaged in the
 business of creating and licensing software in the field of
 computational chemistry and represents and warrants to the
 licensee that it is not a competitor of Gaussian, Inc. and that
 it will not use this program in any manner prohibited above.
 ---------------------------------------------------------------
  

 Cite this work as:
 Gaussian 16, Revision C.02,
 M. J. Frisch, G. W. Trucks, H. B. Schlegel, G. E. Scuseria, 
 M. A. Robb, J. R. Cheeseman, G. Scalmani, V. Barone, 
 G. A. Petersson, H. Nakatsuji, X. Li, M. Caricato, A. V. Marenich, 
 J. Bloino, B. G. Janesko, R. Gomperts, B. Mennucci, H. P. Hratchian, 
 J. V. Ortiz, A. F. Izmaylov, J. L. Sonnenberg, D. Williams-Young, 
 F. Ding, F. Lipparini, F. Egidi, J. Goings, B. Peng, A. Petrone, 
 T. Henderson, D. Ranasinghe, V. G. Zakrzewski, J. Gao, N. Rega, 
 G. Zheng, W. Liang, M. Hada, M. Ehara, K. Toyota, R. Fukuda, 
 J. Hasegawa, M. Ishida, T. Nakajima, Y. Honda, O. Kitao, H. Nakai, 
 T. Vreven, K. Throssell, J. A. Montgomery, Jr., J. E. Peralta, 
 F. Ogliaro, M. J. Bearpark, J. J. Heyd, E. N. Brothers, K. N. Kudin, 
 V. N. Staroverov, T. A. Keith, R. Kobayashi, J. Normand, 
 K. Raghavachari, A. P. Rendell, J. C. Burant, S. S. Iyengar, 
 J. Tomasi, M. Cossi, J. M. Millam, M. Klene, C. Adamo, R. Cammi, 
 J. W. Ochterski, R. L. Martin, K. Morokuma, O. Farkas, 
 J. B. Foresman, and D. J. Fox, Gaussian, Inc., Wallingford CT, 2019.
 
 ******************************************
 Gaussian 16:  ES64L-G16RevC.02  7-Dec-2021
                30-Mar-2023 
 ******************************************
 %NProcShared=2
 Will use up to    2 processors via shared memory.
 %mem=110gb
 %chk=/scratch1/svicchi/G09-345653.pbs02/00-opt/FeFeFe-A-0xH2O-broken-V03-opt.chk
 ----------------------------------------------------------------------
 # SP Geom=AllCheckpoint um06l/Def2TZVP int=grid=ultrafine scf=(xqc,int
 rep,maxconventionalcycle=1000) pop=(CM5) nosymm guess=read
 ----------------------------------------------------------------------
 1/29=7,38=1,172=1/1;
 2/12=2,15=1,40=1/2;
 3/5=44,7=101,11=2,14=-4,25=1,30=1,74=-53,75=-5,116=2/1,2,3;
 4/5=1/1;
 5/5=2,8=3,13=1,17=20,38=6,85=1000/2,8;
 6/7=2,8=2,9=2,10=2,28=1,79=1/1;
 99/5=1,9=1/99;
 Structure from the checkpoint file:  "/scratch1/svicchi/G09-345653.pbs02/00-opt/FeFeFe-A-0xH2O-broken-V03-opt.chk"
 --------------
 FeFeFe-B-0xH2O
 --------------
 Charge =  0 Multiplicity = 5
 Z-Matrix found in chk file.
 O,0,1.713511,-2.143781,-1.638333
 O,0,-0.475155,-2.509277,-1.2049
 C,0,0.58459,-2.70609,-1.811096
 H,0,0.575286,-3.466052,-2.610925
 O,0,1.952173,2.037445,1.157128
 O,0,3.122126,0.114603,1.127593
 C,0,2.900296,1.296706,1.494662
 H,0,3.631024,1.723742,2.200523
 O,0,-2.117666,-0.096457,-1.453853
 O,0,2.679655,0.512148,-1.570821
 O,0,1.39919,2.363167,-1.531321
 C,0,2.335444,1.645942,-1.967757
 H,0,2.916023,2.072315,-2.801826
 O,0,-0.540189,-2.096826,1.713949
 O,0,1.647319,-2.249058,1.170544
 C,0,0.633189,-2.472464,1.886435
 H,0,0.815057,-3.088765,2.783203
 Fe,0,-1.392864,-1.133895,0.137954
 O,0,-2.097064,0.375189,1.472187
 Fe,0,0.250665,1.813181,0.021995
 O,0,-0.833523,2.245843,1.593189
 O,0,-1.34079,2.00305,-1.154979
 Fe,0,1.955246,-0.840346,-0.199967
 O,0,0.281088,-0.048023,-0.013288
 C,0,-1.775911,1.469725,1.951195
 H,0,-2.371466,1.842262,2.802192
 C,0,-2.033784,1.115627,-1.723285
 H,0,-2.649568,1.465737,-2.56854
 N,0,-5.493931,0.051965,0.535939
 N,0,-4.89254,0.768023,-0.033782
 O,0,-2.750172,-2.003473,0.260655
 Recover connectivity data from disk.
                          Input orientation:                          
 ---------------------------------------------------------------------
 Center     Atomic      Atomic             Coordinates (Angstroms)
 Number     Number       Type             X           Y           Z
 ---------------------------------------------------------------------
      1          8           0        1.713511   -2.143781   -1.638333
      2          8           0       -0.475155   -2.509277   -1.204900
      3          6           0        0.584590   -2.706090   -1.811096
      4          1           0        0.575286   -3.466052   -2.610925
      5          8           0        1.952173    2.037445    1.157128
      6          8           0        3.122126    0.114603    1.127593
      7          6           0        2.900296    1.296706    1.494662
      8          1           0        3.631024    1.723742    2.200523
      9          8           0       -2.117666   -0.096457   -1.453853
     10          8           0        2.679655    0.512148   -1.570821
     11          8           0        1.399190    2.363167   -1.531321
     12          6           0        2.335444    1.645942   -1.967757
     13          1           0        2.916023    2.072315   -2.801826
     14          8           0       -0.540189   -2.096826    1.713949
     15          8           0        1.647319   -2.249058    1.170544
     16          6           0        0.633189   -2.472464    1.886435
     17          1           0        0.815057   -3.088765    2.783203
     18         26           0       -1.392864   -1.133895    0.137954
     19          8           0       -2.097064    0.375189    1.472187
     20         26           0        0.250665    1.813181    0.021995
     21          8           0       -0.833523    2.245843    1.593189
     22          8           0       -1.340790    2.003050   -1.154979
     23         26           0        1.955246   -0.840346   -0.199967
     24          8           0        0.281088   -0.048023   -0.013288
     25          6           0       -1.775911    1.469725    1.951195
     26          1           0       -2.371466    1.842262    2.802192
     27          6           0       -2.033784    1.115627   -1.723285
     28          1           0       -2.649568    1.465737   -2.568540
     29          7           0       -5.493931    0.051965    0.535939
     30          7           0       -4.892540    0.768023   -0.033782
     31          8           0       -2.750172   -2.003473    0.260655
 ---------------------------------------------------------------------
                    Distance matrix (angstroms):
                    1          2          3          4          5
     1  O    0.000000
     2  O    2.260909   0.000000
     3  C    1.272989   1.236636   0.000000
     4  H    1.997471   1.998937   1.103338   0.000000
     5  O    5.035297   5.669548   5.760361   6.810471   0.000000
     6  O    3.838599   5.026500   4.799093   5.769229   2.250996
     7  C    4.802194   5.759063   5.684444   6.704132   1.249624
     8  H    5.776799   6.809997   6.708000   7.708536   2.001405
     9  O    4.347814   2.929423   3.773592   4.465980   5.285296
    10  O    2.827004   4.383575   3.847608   4.619119   3.208967
    11  O    4.519162   5.230720   5.141908   5.985328   2.763990
    12  C    3.854520   5.074176   4.693636   5.444658   3.172551
    13  H    4.535991   5.919565   5.408353   6.015730   4.074744
    14  O    4.039698   2.948563   3.749970   4.671574   4.859436
    15  O    2.811628   3.196145   3.198195   4.114588   4.297351
    16  C    3.701232   3.284225   3.705223   4.606172   4.755091
    17  H    4.609793   4.231480   4.615966   5.412620   5.496834
    18  Fe   3.718149   2.130052   3.190755   4.107177   4.720740
    19  O    5.526394   4.256469   5.240753   6.210345   4.388471
    20  Fe   4.533669   4.551454   4.888306   5.908295   2.057657
    21  O    6.016553   5.528915   6.174289   7.230841   2.827310
    22  O    5.172871   4.594879   5.129676   5.975132   4.023758
    23  Fe   1.956087   3.114815   2.820538   3.822478   3.181729
    24  O    3.014102   2.837184   3.223282   4.303161   2.917460
    25  C    6.173994   5.242648   6.096247   7.120601   3.853759
    26  H    7.231448   6.211978   7.120969   8.134088   4.630139
    27  C    4.967210   3.979696   4.633478   5.346675   5.003437
    28  H    5.738498   4.731630   5.332695   5.892709   5.948401
    29  N    7.841937   5.897338   7.075582   7.688601   7.731266
    30  N    7.395478   5.623656   6.725122   7.380120   7.062563
    31  O    4.852866   2.753069   3.988290   4.630743   6.264561
                    6          7          8          9         10
     6  O    0.000000
     7  C    1.257504   0.000000
     8  H    1.999871   1.102072   0.000000
     9  O    5.844983   5.984529   7.050888   0.000000
    10  O    2.763198   3.171971   4.073831   4.837186   0.000000
    11  O    3.885148   3.542207   4.395066   4.292322   2.251094
    12  C    3.541901   3.525531   4.365677   4.809391   1.249611
    13  H    4.394934   4.365962   5.065197   5.644345   2.001341
    14  O    4.318192   4.837467   5.677368   4.065080   5.288086
    15  O    2.786359   3.774579   4.558408   5.069148   4.025551
    16  C    3.669273   4.415869   5.166605   4.936612   5.004853
    17  H    4.280792   5.024034   5.606194   5.958810   5.949859
    18  Fe   4.787825   5.116610   6.136752   2.033584   4.713256
    19  O    5.237041   5.081664   5.929592   2.963880   5.665307
    20  Fe   3.514655   3.075067   4.022538   3.381396   3.182726
    21  O    4.517314   3.853826   4.535816   4.052142   5.035780
    22  O    5.356677   5.050379   6.004693   2.258493   4.308096
    23  Fe   2.008968   2.886499   3.891675   4.325993   2.057486
    24  O    3.065869   3.307939   4.388870   2.798499   2.914245
    25  C    5.148344   4.701624   5.418638   3.763519   5.759654
    26  H    5.997386   5.458822   6.033733   4.683691   6.812215
    27  C    5.976032   5.893481   6.917812   1.244499   4.754360
    28  H    6.985658   6.880347   7.890270   1.991456   5.505033
    29  N    8.636574   8.539999   9.424992   3.921794   8.453266
    30  N    8.124692   7.958891   8.863220   3.234788   7.730854
    31  O    6.302516   6.658960   7.640346   2.641271   6.258249
                   11         12         13         14         15
    11  O    0.000000
    12  C    1.257561   0.000000
    13  H    1.999890   1.102060   0.000000
    14  O    5.846752   5.986028   7.051196   0.000000
    15  O    5.351099   5.049106   6.005297   2.259127   0.000000
    16  C    5.970858   5.891836   6.917090   1.244054   1.261297
    17  H    6.977098   6.877547   7.889446   1.990964   1.999609
    18  Fe   4.776137   5.105075   6.122793   2.034220   3.398903
    19  O    5.019652   5.752839   6.802828   2.931410   4.582365
    20  Fe   2.008578   2.886760   3.891690   4.333164   4.446526
    21  O    3.842048   4.804432   5.779737   4.354240   5.151441
    22  O    2.789051   3.781908   4.564796   5.067612   5.693617
    23  Fe   3.513431   3.074290   4.021984   3.386593   1.989369
    24  O    3.060786   3.303005   4.383453   2.802755   2.848263
    25  C    4.796605   5.682647   6.705861   3.782007   5.114418
    26  H    5.767887   6.704175   7.708144   4.478199   5.962534
    27  C    3.657665   4.408078   5.155491   4.936118   5.765923
    28  H    4.274768   5.024317   5.603406   5.956597   6.800271
    29  N    7.558461   8.373074   9.270912   5.526714   7.529600
    30  N    6.661304   7.533575   8.386710   5.495897   7.302255
    31  O    6.284579   6.644362   7.622113   2.646659   4.497348
                   16         17         18         19         20
    16  C    0.000000
    17  H    1.103221   0.000000
    18  Fe   2.992297   3.961537   0.000000
    19  O    3.966738   4.711495   2.133872   0.000000
    20  Fe   4.689266   5.654368   3.376372   3.111705   0.000000
    21  O    4.949713   5.708940   3.721989   2.260647   1.957373
    22  O    5.759949   6.788485   3.393348   3.181805   1.988479
    23  Fe   2.960527   3.905729   3.377899   4.549158   3.161656
    24  O    3.100135   4.165525   2.001027   2.835728   1.861787
    25  C    4.620477   5.308972   3.195842   1.237173   2.819004
    26  H    5.336986   5.871058   4.112583   1.999128   3.821768
    27  C    5.746061   6.789789   2.989204   3.280746   2.958258
    28  H    6.792107   7.835067   3.957588   4.221615   3.904221
    29  N    6.763001   7.397142   4.287587   3.538324   6.030456
    30  N    6.687426   7.442236   3.986793   3.199523   5.248621
    31  O    3.782888   4.500218   1.616634   2.748162   4.860949
                   21         22         23         24         25
    21  O    0.000000
    22  O    2.805120   0.000000
    23  Fe   4.529592   4.456546   0.000000
    24  O    3.014125   2.853217   1.861566   0.000000
    25  C    1.272251   3.181522   4.887275   3.223972   0.000000
    26  H    1.997457   4.092352   5.910142   4.305363   1.103479
    27  C    3.703649   1.261242   4.696668   3.104320   3.700498
    28  H    4.607231   1.999940   5.668551   4.172472   4.603401
    29  N    5.258353   4.890247   7.538436   5.801939   4.223348
    30  N    4.615908   3.923940   7.036096   5.237631   3.761103
    31  O    4.848286   4.476897   4.868880   3.617647   3.983744
                   26         27         28         29         30
    26  H    0.000000
    27  C    4.595864   0.000000
    28  H    5.391092   1.102825   0.000000
    29  N    4.253334   4.267094   4.441502   0.000000
    30  N    3.943672   3.338822   3.455825   1.094985   0.000000
    31  O    4.625203   3.765370   4.477710   3.439305   3.515341
                   31
    31  O    0.000000
 Symmetry turned off by external request.
 Stoichiometry    C6H6Fe3N2O14(5)
 Framework group  C1[X(C6H6Fe3N2O14)]
 Deg. of freedom    87
 Full point group                 C1      NOp   1
 Rotational constants (GHZ):           0.2588995           0.1792667           0.1467270
 Standard basis: def2TZVP (5D, 7F)
   853 basis functions,  1476 primitive gaussians,   984 cartesian basis functions
   125 alpha electrons      121 beta electrons
       nuclear repulsion energy      4458.1112091673 Hartrees.
 NAtoms=   31 NActive=   31 NUniq=   31 SFac= 1.00D+00 NAtFMM=   60 NAOKFM=F Big=F
 Integral buffers will be    131072 words long.
 Raffenetti 2 integral format.
 Two-electron integral symmetry is turned off.
 One-electron integrals computed using PRISM.
   1 Symmetry operations used in ECPInt.
 ECPInt:  NShTT=   48516 NPrTT=  171499 LenC2=   41468 LenP2D=   95188.
 LDataN:  DoStor=T MaxTD1= 6 Len=  172
 NBasis=   853 RedAO= T EigKep=  2.02D-04  NBF=   853
 NBsUse=   853 1.00D-06 EigRej= -1.00D+00 NBFU=   853
 Initial guess from the checkpoint file:  "/scratch1/svicchi/G09-345653.pbs02/00-opt/FeFeFe-A-0xH2O-broken-V03-opt.chk"
 B after Tr=     0.000000    0.000000    0.000000
         Rot=    1.000000    0.000000    0.000000    0.000000 Ang=   0.00 deg.
 Initial guess <Sx>= 0.0000 <Sy>= 0.0000 <Sz>= 2.0000 <S**2>=11.0043 S= 2.8547
 Requested convergence on RMS density matrix=1.00D-08 within1000 cycles.
 Requested convergence on MAX density matrix=1.00D-06.
 Requested convergence on             energy=1.00D-06.
 No special actions if energy rises.
 EnCoef did     2 forward-backward iterations
 EnCoef did     3 forward-backward iterations
 EnCoef did     4 forward-backward iterations
 EnCoef did     2 forward-backward iterations
 EnCoef did     2 forward-backward iterations
 EnCoef did   100 forward-backward iterations
 EnCoef did   100 forward-backward iterations
 EnCoef did   100 forward-backward iterations
 EnCoef did     4 forward-backward iterations
 EnCoef did     7 forward-backward iterations
 EnCoef did     6 forward-backward iterations
 EnCoef did     3 forward-backward iterations
 Restarting incremental Fock formation.
 SCF Done:  E(UM06L) =  -5186.82469566     A.U. after   31 cycles
            NFock= 31  Conv=0.28D-08     -V/T= 2.0017
 <Sx>= 0.0000 <Sy>= 0.0000 <Sz>= 2.0000 <S**2>=10.8697 S= 2.8346
 <L.S>=  0.00000000000    
 Annihilation of the first spin contaminant:
 S**2 before annihilation    10.8697,   after    20.4341
 QCSCF skips out because SCF is already converged.

 **********************************************************************

            Population analysis using the SCF Density.

 **********************************************************************

 Alpha  occ. eigenvalues -- -255.66478-255.66243-255.64271 -30.11403 -30.08286
 Alpha  occ. eigenvalues --  -29.99943 -25.88502 -25.88483 -25.88394 -25.85790
 Alpha  occ. eigenvalues --  -25.85744 -25.85359 -25.80208 -25.79983 -25.79970
 Alpha  occ. eigenvalues --  -19.00602 -19.00340 -19.00316 -19.00131 -19.00097
 Alpha  occ. eigenvalues --  -18.99957 -18.99819 -18.99639 -18.99573 -18.99537
 Alpha  occ. eigenvalues --  -18.99422 -18.98762 -18.98713 -18.98414 -14.25171
 Alpha  occ. eigenvalues --  -14.25026 -10.20211 -10.20207 -10.19330 -10.19213
 Alpha  occ. eigenvalues --  -10.19071 -10.19037  -3.68050  -3.62151  -3.43701
 Alpha  occ. eigenvalues --   -2.42124  -2.42068  -2.41903  -2.37238  -2.36993
 Alpha  occ. eigenvalues --   -2.34868  -2.18567  -2.17880  -2.17851  -1.08991
 Alpha  occ. eigenvalues --   -1.08392  -1.08081  -1.07749  -1.07562  -1.07180
 Alpha  occ. eigenvalues --   -1.06100  -1.01002  -1.00547  -1.00347  -0.99970
 Alpha  occ. eigenvalues --   -0.99873  -0.99429  -0.95133  -0.90266  -0.61314
 Alpha  occ. eigenvalues --   -0.60082  -0.59852  -0.59582  -0.59387  -0.58888
 Alpha  occ. eigenvalues --   -0.51269  -0.50821  -0.50608  -0.50051  -0.49883
 Alpha  occ. eigenvalues --   -0.49565  -0.49115  -0.48754  -0.48399  -0.48141
 Alpha  occ. eigenvalues --   -0.47951  -0.47657  -0.47438  -0.45979  -0.45420
 Alpha  occ. eigenvalues --   -0.44330  -0.43788  -0.43481  -0.43199  -0.42359
 Alpha  occ. eigenvalues --   -0.41957  -0.41849  -0.41805  -0.40799  -0.40660
 Alpha  occ. eigenvalues --   -0.39688  -0.39473  -0.39382  -0.38897  -0.37301
 Alpha  occ. eigenvalues --   -0.36806  -0.36331  -0.35063  -0.34659  -0.33224
 Alpha  occ. eigenvalues --   -0.32912  -0.32633  -0.31215  -0.31176  -0.30883
 Alpha  occ. eigenvalues --   -0.30599  -0.30460  -0.30249  -0.30198  -0.29621
 Alpha  occ. eigenvalues --   -0.29556  -0.29199  -0.29053  -0.28540  -0.27439
 Alpha  occ. eigenvalues --   -0.27058  -0.25763  -0.24828  -0.24721  -0.23999
 Alpha virt. eigenvalues --   -0.18457  -0.18358  -0.17684  -0.15945  -0.14092
 Alpha virt. eigenvalues --   -0.12097  -0.05430  -0.04837  -0.04297  -0.04034
 Alpha virt. eigenvalues --   -0.03936  -0.03731  -0.03644  -0.03429   0.01634
 Alpha virt. eigenvalues --    0.03001   0.06035   0.07352   0.07415   0.07649
 Alpha virt. eigenvalues --    0.07741   0.08195   0.08418   0.09779   0.10962
 Alpha virt. eigenvalues --    0.12900   0.13443   0.14359   0.15518   0.15977
 Alpha virt. eigenvalues --    0.16586   0.17171   0.17534   0.18341   0.18804
 Alpha virt. eigenvalues --    0.20326   0.20860   0.21468   0.21773   0.22027
 Alpha virt. eigenvalues --    0.22834   0.23836   0.24507   0.24681   0.25026
 Alpha virt. eigenvalues --    0.26048   0.26156   0.26375   0.27169   0.27317
 Alpha virt. eigenvalues --    0.27791   0.28806   0.29492   0.29685   0.30144
 Alpha virt. eigenvalues --    0.30687   0.31360   0.31665   0.31940   0.32685
 Alpha virt. eigenvalues --    0.33249   0.33511   0.33810   0.34654   0.35188
 Alpha virt. eigenvalues --    0.35522   0.35659   0.36115   0.36352   0.37054
 Alpha virt. eigenvalues --    0.37656   0.37821   0.38245   0.38851   0.39131
 Alpha virt. eigenvalues --    0.39454   0.39578   0.40578   0.40710   0.41499
 Alpha virt. eigenvalues --    0.41684   0.41956   0.42018   0.42477   0.43517
 Alpha virt. eigenvalues --    0.43748   0.44737   0.44983   0.45553   0.46026
 Alpha virt. eigenvalues --    0.46403   0.46708   0.47889   0.48174   0.49038
 Alpha virt. eigenvalues --    0.49799   0.50834   0.50918   0.51625   0.52159
 Alpha virt. eigenvalues --    0.53089   0.53601   0.53816   0.54207   0.54699
 Alpha virt. eigenvalues --    0.55261   0.56027   0.56628   0.57137   0.57655
 Alpha virt. eigenvalues --    0.59663   0.60031   0.61023   0.62437   0.63197
 Alpha virt. eigenvalues --    0.63975   0.64808   0.65663   0.66101   0.66457
 Alpha virt. eigenvalues --    0.66691   0.67874   0.68136   0.68606   0.68875
 Alpha virt. eigenvalues --    0.69423   0.70424   0.70853   0.71251   0.71477
 Alpha virt. eigenvalues --    0.72242   0.72439   0.72818   0.73423   0.73920
 Alpha virt. eigenvalues --    0.74232   0.75015   0.75392   0.76249   0.76504
 Alpha virt. eigenvalues --    0.77280   0.78259   0.79735   0.80057   0.80311
 Alpha virt. eigenvalues --    0.80982   0.81262   0.81870   0.82676   0.83271
 Alpha virt. eigenvalues --    0.84225   0.85556   0.86227   0.86817   0.87127
 Alpha virt. eigenvalues --    0.88109   0.89255   0.89816   0.90041   0.90810
 Alpha virt. eigenvalues --    0.91287   0.92086   0.92401   0.93957   0.95139
 Alpha virt. eigenvalues --    0.95272   0.96125   0.96358   0.97345   0.98053
 Alpha virt. eigenvalues --    0.98432   0.98512   0.99255   1.00978   1.02247
 Alpha virt. eigenvalues --    1.02734   1.02933   1.03539   1.04506   1.05530
 Alpha virt. eigenvalues --    1.06300   1.07445   1.08595   1.09029   1.09759
 Alpha virt. eigenvalues --    1.10571   1.11090   1.12305   1.13578   1.14430
 Alpha virt. eigenvalues --    1.15662   1.17461   1.18446   1.19710   1.19993
 Alpha virt. eigenvalues --    1.22125   1.22658   1.23395   1.24149   1.24709
 Alpha virt. eigenvalues --    1.25240   1.27007   1.27708   1.28102   1.29924
 Alpha virt. eigenvalues --    1.31837   1.32883   1.34559   1.36913   1.37453
 Alpha virt. eigenvalues --    1.39200   1.39456   1.40621   1.42586   1.42899
 Alpha virt. eigenvalues --    1.43532   1.44553   1.45211   1.46270   1.47176
 Alpha virt. eigenvalues --    1.47530   1.48222   1.48923   1.49232   1.49523
 Alpha virt. eigenvalues --    1.50663   1.51038   1.52185   1.54125   1.54487
 Alpha virt. eigenvalues --    1.55741   1.56315   1.57489   1.58006   1.58689
 Alpha virt. eigenvalues --    1.58832   1.60901   1.61178   1.61675   1.64329
 Alpha virt. eigenvalues --    1.65313   1.65678   1.66465   1.67395   1.69364
 Alpha virt. eigenvalues --    1.69886   1.71085   1.71827   1.72349   1.73232
 Alpha virt. eigenvalues --    1.73917   1.74442   1.75116   1.75875   1.76826
 Alpha virt. eigenvalues --    1.77765   1.79380   1.80198   1.82276   1.82804
 Alpha virt. eigenvalues --    1.84725   1.85137   1.86380   1.86961   1.87650
 Alpha virt. eigenvalues --    1.87950   1.88817   1.89719   1.90207   1.90799
 Alpha virt. eigenvalues --    1.92047   1.92248   1.93944   1.94725   1.95814
 Alpha virt. eigenvalues --    1.96486   1.98041   1.98073   1.98873   2.00003
 Alpha virt. eigenvalues --    2.00562   2.01431   2.02181   2.02871   2.03494
 Alpha virt. eigenvalues --    2.04228   2.04567   2.05838   2.06746   2.07677
 Alpha virt. eigenvalues --    2.08083   2.08440   2.10335   2.11026   2.11568
 Alpha virt. eigenvalues --    2.11781   2.12258   2.13151   2.13363   2.14221
 Alpha virt. eigenvalues --    2.15294   2.15669   2.16742   2.16811   2.17455
 Alpha virt. eigenvalues --    2.18454   2.19023   2.20365   2.20890   2.21179
 Alpha virt. eigenvalues --    2.22485   2.23487   2.24162   2.24468   2.25856
 Alpha virt. eigenvalues --    2.26332   2.27007   2.28229   2.30137   2.31413
 Alpha virt. eigenvalues --    2.31843   2.33424   2.33908   2.35043   2.36422
 Alpha virt. eigenvalues --    2.38261   2.39203   2.40006   2.41896   2.44023
 Alpha virt. eigenvalues --    2.46082   2.47274   2.53354   2.53756   2.55656
 Alpha virt. eigenvalues --    2.55997   2.57003   2.57387   2.59876   2.61439
 Alpha virt. eigenvalues --    2.61995   2.63418   2.66584   2.67195   2.67866
 Alpha virt. eigenvalues --    2.68277   2.69829   2.70744   2.70790   2.72879
 Alpha virt. eigenvalues --    2.74211   2.75159   2.78457   2.79237   2.80819
 Alpha virt. eigenvalues --    2.81869   2.82861   2.84493   2.84923   2.86899
 Alpha virt. eigenvalues --    2.88642   2.89124   2.90981   2.91848   2.92252
 Alpha virt. eigenvalues --    2.94118   2.94436   2.95082   2.95595   2.96141
 Alpha virt. eigenvalues --    2.96943   2.98059   3.00573   3.01098   3.01744
 Alpha virt. eigenvalues --    3.01916   3.02663   3.03664   3.03985   3.04598
 Alpha virt. eigenvalues --    3.05176   3.06638   3.07059   3.07417   3.09419
 Alpha virt. eigenvalues --    3.10153   3.11076   3.11206   3.11885   3.12460
 Alpha virt. eigenvalues --    3.12817   3.13277   3.13681   3.14270   3.14774
 Alpha virt. eigenvalues --    3.15373   3.15731   3.16146   3.16177   3.16953
 Alpha virt. eigenvalues --    3.18111   3.19249   3.19826   3.20320   3.21248
 Alpha virt. eigenvalues --    3.22627   3.23889   3.24376   3.25054   3.25541
 Alpha virt. eigenvalues --    3.25602   3.26603   3.27546   3.28297   3.30924
 Alpha virt. eigenvalues --    3.31959   3.32950   3.34322   3.36545   3.36878
 Alpha virt. eigenvalues --    3.37641   3.41090   3.41539   3.41874   3.42334
 Alpha virt. eigenvalues --    3.44539   3.44722   3.45316   3.46185   3.46609
 Alpha virt. eigenvalues --    3.47599   3.47695   3.48714   3.49058   3.49297
 Alpha virt. eigenvalues --    3.49987   3.52006   3.53081   3.53761   3.55065
 Alpha virt. eigenvalues --    3.55807   3.56363   3.57380   3.58168   3.58968
 Alpha virt. eigenvalues --    3.59977   3.60606   3.60841   3.62027   3.62928
 Alpha virt. eigenvalues --    3.64529   3.64861   3.66661   3.66919   3.69546
 Alpha virt. eigenvalues --    3.70234   3.71099   3.71428   3.72549   3.72694
 Alpha virt. eigenvalues --    3.73177   3.73857   3.73936   3.74347   3.78212
 Alpha virt. eigenvalues --    3.79356   3.80100   3.81185   3.81464   3.81983
 Alpha virt. eigenvalues --    3.84865   3.88734   3.89998   3.90833   3.91193
 Alpha virt. eigenvalues --    3.91673   3.93632   3.94729   3.95362   3.96556
 Alpha virt. eigenvalues --    3.97258   3.98988   4.00679   4.02306   4.04658
 Alpha virt. eigenvalues --    4.04819   4.06160   4.06448   4.07942   4.08717
 Alpha virt. eigenvalues --    4.11125   4.11649   4.12554   4.13826   4.14726
 Alpha virt. eigenvalues --    4.16610   4.17473   4.18498   4.18919   4.19757
 Alpha virt. eigenvalues --    4.20912   4.22392   4.22613   4.23238   4.24382
 Alpha virt. eigenvalues --    4.24741   4.26897   4.29800   4.31462   4.33873
 Alpha virt. eigenvalues --    4.42867   4.43467   4.43959   4.45541   4.46035
 Alpha virt. eigenvalues --    4.47317   4.47623   4.48642   4.50121   4.50855
 Alpha virt. eigenvalues --    4.51369   4.53038   4.54460   4.56063   4.56659
 Alpha virt. eigenvalues --    4.59572   4.61021   4.62975   4.66010   5.08501
 Alpha virt. eigenvalues --    5.08543   5.11237   5.14761   5.16336   5.21927
 Alpha virt. eigenvalues --    5.22242   5.22530   5.22671   5.23060   5.23171
 Alpha virt. eigenvalues --    5.23426   5.23906   5.24223   5.24384   5.24543
 Alpha virt. eigenvalues --    5.24821   5.24929   5.25262   5.25401   5.25560
 Alpha virt. eigenvalues --    5.26197   5.26585   5.27516   5.27856   5.28356
 Alpha virt. eigenvalues --    5.28697   5.29550   5.29829   5.30205   5.31276
 Alpha virt. eigenvalues --    5.31566   5.31888   5.32235   5.32680   5.34403
 Alpha virt. eigenvalues --    5.35822   5.37488   5.38271   5.38370   5.39338
 Alpha virt. eigenvalues --    5.39420   5.41212   5.42656   5.43902   5.45590
 Alpha virt. eigenvalues --    5.48930   5.49418   5.56610   5.56887   5.57139
 Alpha virt. eigenvalues --    5.57308   5.57550   5.58591   5.60758   5.61473
 Alpha virt. eigenvalues --    5.62425   5.62516   5.63246   5.64813   5.67079
 Alpha virt. eigenvalues --    5.67748   5.67975   5.68027   5.68158   5.68471
 Alpha virt. eigenvalues --    5.86224   5.87019   5.87112   5.91323   5.92080
 Alpha virt. eigenvalues --    5.92738   5.94369   6.03693   6.04317   6.04510
 Alpha virt. eigenvalues --    6.06586   6.07991   6.08652   6.13683   6.13879
 Alpha virt. eigenvalues --    6.14410   6.14755   6.16050   6.16334   6.16876
 Alpha virt. eigenvalues --    6.19022   6.19096   6.21057   6.21358   6.25318
 Alpha virt. eigenvalues --    6.31918   6.35929   6.40905   6.41216   6.41628
 Alpha virt. eigenvalues --    6.42102   6.42849   6.43641   6.45479   6.46279
 Alpha virt. eigenvalues --    6.47323   6.47967   6.48119   6.48660   6.49037
 Alpha virt. eigenvalues --    6.49944   6.50305   6.52121   6.53264   6.54661
 Alpha virt. eigenvalues --    6.55773   6.56681   6.57703   6.59563   6.60196
 Alpha virt. eigenvalues --    6.60667   6.61740   6.62320   6.64657   6.65067
 Alpha virt. eigenvalues --    6.66722   6.66866   6.68562   6.68914   6.70410
 Alpha virt. eigenvalues --    6.71491   6.72192   6.73158   6.74020   6.78223
 Alpha virt. eigenvalues --    6.79628   6.82383   6.82869   6.84483   6.85703
 Alpha virt. eigenvalues --    6.86633   6.87216   6.87886   6.88688   6.88914
 Alpha virt. eigenvalues --    6.89505   6.91068   6.92593   6.94341   6.95525
 Alpha virt. eigenvalues --    6.97168   6.98567   6.98945   6.99748   7.02371
 Alpha virt. eigenvalues --    7.02849   7.04151   7.05371   7.06184   7.09868
 Alpha virt. eigenvalues --    7.10445   7.12260   7.20828   7.21496   7.21940
 Alpha virt. eigenvalues --    7.22133   7.23193   7.24476   7.24718   7.25165
 Alpha virt. eigenvalues --    7.25608   7.26384   7.27184   7.27591   7.29026
 Alpha virt. eigenvalues --    7.30641   7.30895   7.33700   7.35823   7.37794
 Alpha virt. eigenvalues --    7.45536  23.18669  23.19698  23.20786  23.21480
 Alpha virt. eigenvalues --   23.22406  23.25090  31.49842  32.25075  43.71170
 Alpha virt. eigenvalues --   43.75257  43.84452  43.88187  43.90161  43.93021
 Alpha virt. eigenvalues --   43.93946  44.08015  44.09903  44.14395  44.15670
 Alpha virt. eigenvalues --   44.17216  44.27475  44.28203
  Beta  occ. eigenvalues -- -255.66420-255.66300-255.64159 -30.11331 -29.99997
  Beta  occ. eigenvalues --  -29.99135 -25.88436 -25.88411 -25.88324 -25.80265
  Beta  occ. eigenvalues --  -25.80040 -25.80026 -25.79850 -25.78659 -25.78343
  Beta  occ. eigenvalues --  -19.00584 -19.00345 -19.00333 -19.00125 -19.00094
  Beta  occ. eigenvalues --  -19.00004 -18.99914 -18.99568 -18.99450 -18.99426
  Beta  occ. eigenvalues --  -18.99232 -18.98606 -18.98496 -18.96852 -14.25170
  Beta  occ. eigenvalues --  -14.25025 -10.20215 -10.20203 -10.19331 -10.19214
  Beta  occ. eigenvalues --  -10.19063 -10.19036  -3.67970  -3.43741  -3.43592
  Beta  occ. eigenvalues --   -2.42053  -2.41985  -2.41822  -2.20292  -2.18608
  Beta  occ. eigenvalues --   -2.17914  -2.17894  -2.17070  -2.16448  -1.08988
  Beta  occ. eigenvalues --   -1.08392  -1.08003  -1.07478  -1.07425  -1.06921
  Beta  occ. eigenvalues --   -1.06096  -1.00994  -1.00547  -1.00242  -0.99753
  Beta  occ. eigenvalues --   -0.99587  -0.99155  -0.95062  -0.86227  -0.61281
  Beta  occ. eigenvalues --   -0.60071  -0.59775  -0.59336  -0.59233  -0.58576
  Beta  occ. eigenvalues --   -0.51210  -0.50813  -0.50319  -0.49934  -0.49599
  Beta  occ. eigenvalues --   -0.49496  -0.48836  -0.48442  -0.48097  -0.47747
  Beta  occ. eigenvalues --   -0.47621  -0.47173  -0.47129  -0.45916  -0.45098
  Beta  occ. eigenvalues --   -0.44136  -0.43503  -0.43338  -0.42596  -0.42195
  Beta  occ. eigenvalues --   -0.41997  -0.41773  -0.41512  -0.40520  -0.40415
  Beta  occ. eigenvalues --   -0.38747  -0.37865  -0.36760  -0.36482  -0.33671
  Beta  occ. eigenvalues --   -0.33337  -0.32978  -0.32966  -0.31829  -0.31543
  Beta  occ. eigenvalues --   -0.31241  -0.31018  -0.30820  -0.30408  -0.30187
  Beta  occ. eigenvalues --   -0.29996  -0.29683  -0.29595  -0.29436  -0.29074
  Beta  occ. eigenvalues --   -0.28521  -0.27442  -0.27262  -0.26489  -0.26404
  Beta  occ. eigenvalues --   -0.24941
  Beta virt. eigenvalues --   -0.18602  -0.18228  -0.17732  -0.16767  -0.14724
  Beta virt. eigenvalues --   -0.13177  -0.12851  -0.12792  -0.11881  -0.08091
  Beta virt. eigenvalues --   -0.05420  -0.04797  -0.03998  -0.03974  -0.03899
  Beta virt. eigenvalues --   -0.03728  -0.03401  -0.03200   0.01621   0.03050
  Beta virt. eigenvalues --    0.06011   0.07325   0.07416   0.07666   0.07813
  Beta virt. eigenvalues --    0.08201   0.08448   0.09796   0.10979   0.12582
  Beta virt. eigenvalues --    0.13735   0.14314   0.15529   0.16042   0.16625
  Beta virt. eigenvalues --    0.17276   0.17530   0.18437   0.19244   0.20210
  Beta virt. eigenvalues --    0.20876   0.21486   0.21776   0.22038   0.22870
  Beta virt. eigenvalues --    0.23915   0.24640   0.24774   0.25793   0.26040
  Beta virt. eigenvalues --    0.26343   0.26629   0.27223   0.27751   0.27912
  Beta virt. eigenvalues --    0.29004   0.29314   0.29700   0.30568   0.30936
  Beta virt. eigenvalues --    0.31635   0.31768   0.32083   0.32689   0.33295
  Beta virt. eigenvalues --    0.33466   0.33899   0.34908   0.35248   0.35678
  Beta virt. eigenvalues --    0.36057   0.36088   0.36430   0.37080   0.37692
  Beta virt. eigenvalues --    0.37933   0.38344   0.38880   0.39219   0.39467
  Beta virt. eigenvalues --    0.39702   0.40347   0.40769   0.41474   0.41667
  Beta virt. eigenvalues --    0.41811   0.42207   0.42739   0.43503   0.43872
  Beta virt. eigenvalues --    0.44820   0.45149   0.45755   0.46290   0.46447
  Beta virt. eigenvalues --    0.46828   0.47995   0.48107   0.49173   0.49990
  Beta virt. eigenvalues --    0.51039   0.51123   0.51791   0.52025   0.53221
  Beta virt. eigenvalues --    0.53599   0.54210   0.54455   0.54518   0.55420
  Beta virt. eigenvalues --    0.56110   0.56649   0.57276   0.58164   0.59638
  Beta virt. eigenvalues --    0.60272   0.61199   0.62578   0.63866   0.64029
  Beta virt. eigenvalues --    0.64817   0.65694   0.66230   0.66603   0.66703
  Beta virt. eigenvalues --    0.67936   0.68233   0.68894   0.69005   0.69696
  Beta virt. eigenvalues --    0.70591   0.70905   0.71415   0.71943   0.72446
  Beta virt. eigenvalues --    0.72578   0.73092   0.73586   0.74218   0.74334
  Beta virt. eigenvalues --    0.75258   0.75664   0.76278   0.76570   0.77542
  Beta virt. eigenvalues --    0.78450   0.79694   0.80160   0.80346   0.81276
  Beta virt. eigenvalues --    0.81563   0.82106   0.82942   0.83858   0.84682
  Beta virt. eigenvalues --    0.86008   0.86443   0.87178   0.87327   0.88860
  Beta virt. eigenvalues --    0.89492   0.89755   0.90048   0.90830   0.91940
  Beta virt. eigenvalues --    0.92357   0.92778   0.94010   0.95266   0.95495
  Beta virt. eigenvalues --    0.96242   0.96801   0.97396   0.98366   0.98768
  Beta virt. eigenvalues --    0.99085   0.99384   1.01387   1.02386   1.03272
  Beta virt. eigenvalues --    1.03433   1.04238   1.04565   1.05889   1.07103
  Beta virt. eigenvalues --    1.07973   1.08963   1.09593   1.09831   1.10646
  Beta virt. eigenvalues --    1.11723   1.11833   1.13905   1.14609   1.16016
  Beta virt. eigenvalues --    1.17704   1.18637   1.19833   1.20405   1.22762
  Beta virt. eigenvalues --    1.22787   1.23584   1.24615   1.24925   1.25359
  Beta virt. eigenvalues --    1.27371   1.28061   1.28430   1.29997   1.32065
  Beta virt. eigenvalues --    1.32876   1.34914   1.37115   1.37535   1.39302
  Beta virt. eigenvalues --    1.39602   1.41000   1.42706   1.43029   1.43623
  Beta virt. eigenvalues --    1.44718   1.45795   1.46470   1.47322   1.47747
  Beta virt. eigenvalues --    1.48450   1.49192   1.49518   1.49606   1.50854
  Beta virt. eigenvalues --    1.51827   1.53026   1.54168   1.54680   1.56107
  Beta virt. eigenvalues --    1.56768   1.57956   1.58247   1.59089   1.59555
  Beta virt. eigenvalues --    1.61180   1.61398   1.61999   1.64737   1.65487
  Beta virt. eigenvalues --    1.66101   1.66700   1.68049   1.69588   1.70850
  Beta virt. eigenvalues --    1.71537   1.72416   1.72902   1.74051   1.74561
  Beta virt. eigenvalues --    1.75346   1.75514   1.76312   1.77244   1.78126
  Beta virt. eigenvalues --    1.79847   1.80484   1.82723   1.83233   1.84913
  Beta virt. eigenvalues --    1.85303   1.86525   1.87059   1.87798   1.88111
  Beta virt. eigenvalues --    1.89117   1.90116   1.90198   1.91233   1.92254
  Beta virt. eigenvalues --    1.92539   1.94115   1.95068   1.95957   1.96534
  Beta virt. eigenvalues --    1.98144   1.98588   1.99317   2.00018   2.00920
  Beta virt. eigenvalues --    2.01776   2.02504   2.02820   2.03880   2.04621
  Beta virt. eigenvalues --    2.05607   2.05943   2.07124   2.07629   2.08290
  Beta virt. eigenvalues --    2.08850   2.10527   2.11353   2.11489   2.12064
  Beta virt. eigenvalues --    2.12694   2.13047   2.13379   2.14890   2.15471
  Beta virt. eigenvalues --    2.15689   2.16982   2.17133   2.17665   2.18775
  Beta virt. eigenvalues --    2.19316   2.20962   2.21092   2.22160   2.22907
  Beta virt. eigenvalues --    2.23960   2.24946   2.25337   2.26622   2.26750
  Beta virt. eigenvalues --    2.27507   2.28659   2.30573   2.32132   2.33199
  Beta virt. eigenvalues --    2.33633   2.34146   2.35861   2.37199   2.38242
  Beta virt. eigenvalues --    2.39748   2.40150   2.42197   2.44453   2.46212
  Beta virt. eigenvalues --    2.47361   2.54032   2.54502   2.55773   2.56481
  Beta virt. eigenvalues --    2.57181   2.58309   2.60046   2.62055   2.62336
  Beta virt. eigenvalues --    2.63496   2.66865   2.67589   2.67996   2.68777
  Beta virt. eigenvalues --    2.70386   2.71112   2.71390   2.73320   2.74395
  Beta virt. eigenvalues --    2.75688   2.78883   2.79395   2.80950   2.82581
  Beta virt. eigenvalues --    2.83371   2.85287   2.86429   2.87641   2.89282
  Beta virt. eigenvalues --    2.90156   2.92170   2.92301   2.92368   2.94639
  Beta virt. eigenvalues --    2.95207   2.95471   2.96041   2.96676   2.97226
  Beta virt. eigenvalues --    2.98756   3.00740   3.01504   3.02192   3.02440
  Beta virt. eigenvalues --    3.03645   3.03975   3.04421   3.05204   3.05929
  Beta virt. eigenvalues --    3.06855   3.07323   3.07806   3.09665   3.10603
  Beta virt. eigenvalues --    3.11237   3.11420   3.12118   3.12856   3.13016
  Beta virt. eigenvalues --    3.13436   3.13886   3.14409   3.14859   3.15422
  Beta virt. eigenvalues --    3.15805   3.16202   3.16592   3.17945   3.18238
  Beta virt. eigenvalues --    3.19992   3.20373   3.20980   3.21332   3.22937
  Beta virt. eigenvalues --    3.24359   3.24785   3.25265   3.25762   3.26236
  Beta virt. eigenvalues --    3.26909   3.27807   3.28762   3.31652   3.32147
  Beta virt. eigenvalues --    3.33212   3.35232   3.37003   3.37921   3.38230
  Beta virt. eigenvalues --    3.41239   3.41907   3.42467   3.43076   3.44895
  Beta virt. eigenvalues --    3.45254   3.46032   3.46784   3.47388   3.48156
  Beta virt. eigenvalues --    3.48824   3.48845   3.49258   3.49580   3.50424
  Beta virt. eigenvalues --    3.52076   3.53764   3.55151   3.55292   3.56620
  Beta virt. eigenvalues --    3.57133   3.57664   3.59350   3.59739   3.60442
  Beta virt. eigenvalues --    3.61632   3.62262   3.62658   3.63889   3.66196
  Beta virt. eigenvalues --    3.66772   3.67208   3.67996   3.70647   3.70892
  Beta virt. eigenvalues --    3.72259   3.72718   3.73117   3.73647   3.74270
  Beta virt. eigenvalues --    3.74913   3.76694   3.77055   3.79239   3.79886
  Beta virt. eigenvalues --    3.80486   3.81564   3.82121   3.84017   3.85646
  Beta virt. eigenvalues --    3.89976   3.90170   3.91221   3.92505   3.94057
  Beta virt. eigenvalues --    3.97013   3.97622   3.98473   4.01255   4.04948
  Beta virt. eigenvalues --    4.05969   4.06477   4.07791   4.08430   4.08651
  Beta virt. eigenvalues --    4.09540   4.11046   4.11467   4.13088   4.13243
  Beta virt. eigenvalues --    4.13832   4.14268   4.15562   4.17169   4.18078
  Beta virt. eigenvalues --    4.19511   4.20198   4.21733   4.22450   4.22650
  Beta virt. eigenvalues --    4.23378   4.23862   4.24685   4.26341   4.27475
  Beta virt. eigenvalues --    4.29045   4.30030   4.31795   4.33939   4.42874
  Beta virt. eigenvalues --    4.43595   4.44009   4.45758   4.46300   4.47447
  Beta virt. eigenvalues --    4.47855   4.49382   4.50179   4.51111   4.52021
  Beta virt. eigenvalues --    4.53085   4.55932   4.56918   4.59641   4.61157
  Beta virt. eigenvalues --    4.61476   4.63134   4.66116   5.08509   5.08551
  Beta virt. eigenvalues --    5.11246   5.14770   5.16356   5.21956   5.22359
  Beta virt. eigenvalues --    5.22658   5.23123   5.23324   5.23550   5.24107
  Beta virt. eigenvalues --    5.24346   5.24670   5.24864   5.25083   5.25278
  Beta virt. eigenvalues --    5.25994   5.26417   5.26932   5.27131   5.27879
  Beta virt. eigenvalues --    5.28143   5.28365   5.28971   5.29851   5.30026
  Beta virt. eigenvalues --    5.30978   5.31478   5.32062   5.32132   5.32304
  Beta virt. eigenvalues --    5.32734   5.33458   5.33890   5.35937   5.36475
  Beta virt. eigenvalues --    5.37909   5.39302   5.39483   5.41428   5.41923
  Beta virt. eigenvalues --    5.42869   5.43050   5.44369   5.45622   5.48867
  Beta virt. eigenvalues --    5.50142   5.56634   5.56951   5.57286   5.57471
  Beta virt. eigenvalues --    5.57756   5.58894   5.60817   5.61531   5.62540
  Beta virt. eigenvalues --    5.62713   5.63463   5.64970   5.67274   5.67851
  Beta virt. eigenvalues --    5.68067   5.68323   5.68406   5.68797   5.86337
  Beta virt. eigenvalues --    5.87066   5.87268   5.91699   5.92177   5.93862
  Beta virt. eigenvalues --    5.99191   6.03711   6.04431   6.04636   6.06794
  Beta virt. eigenvalues --    6.08085   6.08884   6.13563   6.14129   6.14505
  Beta virt. eigenvalues --    6.14782   6.16065   6.16357   6.17088   6.19104
  Beta virt. eigenvalues --    6.19439   6.21481   6.21629   6.25998   6.31990
  Beta virt. eigenvalues --    6.41273   6.41548   6.41771   6.41985   6.42486
  Beta virt. eigenvalues --    6.43531   6.44296   6.46558   6.47607   6.48389
  Beta virt. eigenvalues --    6.48540   6.49005   6.49541   6.50354   6.50835
  Beta virt. eigenvalues --    6.50948   6.52826   6.53937   6.55203   6.56492
  Beta virt. eigenvalues --    6.57447   6.58277   6.60443   6.60569   6.61759
  Beta virt. eigenvalues --    6.62066   6.62823   6.65038   6.65632   6.66872
  Beta virt. eigenvalues --    6.67194   6.69234   6.70685   6.71799   6.72317
  Beta virt. eigenvalues --    6.73067   6.73988   6.74655   6.78784   6.80007
  Beta virt. eigenvalues --    6.82479   6.83191   6.84801   6.85829   6.86810
  Beta virt. eigenvalues --    6.87222   6.87841   6.88832   6.89326   6.89630
  Beta virt. eigenvalues --    6.91024   6.93104   6.94487   6.95603   6.97452
  Beta virt. eigenvalues --    6.98622   6.99551   6.99862   7.02583   7.03218
  Beta virt. eigenvalues --    7.04462   7.05472   7.06636   7.10195   7.10805
  Beta virt. eigenvalues --    7.12564   7.20905   7.21937   7.22201   7.23290
  Beta virt. eigenvalues --    7.23508   7.24591   7.24895   7.25487   7.25930
  Beta virt. eigenvalues --    7.26646   7.27273   7.27778   7.29582   7.30677
  Beta virt. eigenvalues --    7.31260   7.34081   7.36264   7.38073   7.46301
  Beta virt. eigenvalues --   23.18667  23.19698  23.20782  23.21476  23.22405
  Beta virt. eigenvalues --   23.25091  31.49842  32.25075  43.71040  43.75251
  Beta virt. eigenvalues --   43.84453  43.88179  43.90161  43.93022  43.93946
  Beta virt. eigenvalues --   44.07986  44.09902  44.14392  44.15670  44.17211
  Beta virt. eigenvalues --   44.27484  44.28194
          Condensed to atoms (all electrons):
               1          2          3          4          5          6
     1  O    8.324582  -0.092916   0.316823  -0.065228   0.000010  -0.001682
     2  O   -0.092916   8.247842   0.375042  -0.052342  -0.000000   0.000011
     3  C    0.316823   0.375042   4.238213   0.415675  -0.000065   0.000625
     4  H   -0.065228  -0.052342   0.415675   0.637626  -0.000000   0.000002
     5  O    0.000010  -0.000000  -0.000065  -0.000000   8.284564  -0.090764
     6  O   -0.001682   0.000011   0.000625   0.000002  -0.090764   8.287630
     7  C    0.000642  -0.000069   0.000266   0.000002   0.381094   0.359115
     8  H    0.000003  -0.000000   0.000003   0.000000  -0.055583  -0.060345
     9  O    0.000007  -0.020341   0.001179  -0.000036  -0.000005   0.000000
    10  O   -0.032424   0.000066  -0.000439  -0.000065  -0.002614  -0.040982
    11  O   -0.000039  -0.000004  -0.000156  -0.000000  -0.041136   0.001343
    12  C   -0.000345  -0.000070   0.000909   0.000012   0.001364  -0.003964
    13  H   -0.000045  -0.000001   0.000051   0.000000  -0.000240  -0.000285
    14  O    0.000624  -0.024945   0.002041  -0.000097  -0.000018   0.000043
    15  O   -0.036066  -0.001981  -0.001052  -0.000439   0.000091  -0.036392
    16  C   -0.001805   0.007873  -0.000257   0.000433   0.000126  -0.001677
    17  H   -0.000177  -0.000025   0.000354  -0.000002   0.000006  -0.000142
    18  Fe  -0.006052   0.120834  -0.014863   0.002062   0.000393   0.000496
    19  O   -0.000002  -0.000792   0.000162   0.000001   0.000023  -0.000006
    20  Fe  -0.000194   0.000053   0.000349   0.000023   0.129510  -0.008508
    21  O    0.000000  -0.000001  -0.000003  -0.000000  -0.032420  -0.000043
    22  O   -0.000010  -0.000041  -0.000023  -0.000001  -0.001255  -0.000003
    23  Fe   0.153862   0.002954  -0.023032   0.003568  -0.001866   0.137227
    24  O   -0.010966  -0.025662  -0.002099  -0.000472  -0.025967  -0.009905
    25  C   -0.000003   0.000163  -0.000027  -0.000001  -0.000344  -0.000154
    26  H   -0.000000   0.000001  -0.000000   0.000000  -0.000069  -0.000001
    27  C   -0.000029   0.001688   0.000316   0.000079   0.000578  -0.000013
    28  H    0.000001  -0.000013   0.000034  -0.000000   0.000004  -0.000000
    29  N    0.000000  -0.000000  -0.000000  -0.000000   0.000000   0.000000
    30  N    0.000000  -0.000004  -0.000002  -0.000000  -0.000000  -0.000000
    31  O   -0.000051  -0.021410   0.000488   0.000083  -0.000001  -0.000000
               7          8          9         10         11         12
     1  O    0.000642   0.000003   0.000007  -0.032424  -0.000039  -0.000345
     2  O   -0.000069  -0.000000  -0.020341   0.000066  -0.000004  -0.000070
     3  C    0.000266   0.000003   0.001179  -0.000439  -0.000156   0.000909
     4  H    0.000002   0.000000  -0.000036  -0.000065  -0.000000   0.000012
     5  O    0.381094  -0.055583  -0.000005  -0.002614  -0.041136   0.001364
     6  O    0.359115  -0.060345   0.000000  -0.040982   0.001343  -0.003964
     7  C    4.194841   0.417468  -0.000016   0.001490  -0.004052   0.000243
     8  H    0.417468   0.631488  -0.000000  -0.000236  -0.000286   0.000310
     9  O   -0.000016  -0.000000   8.255751  -0.000028   0.000045  -0.000091
    10  O    0.001490  -0.000236  -0.000028   8.284312  -0.090849   0.380758
    11  O   -0.004052  -0.000286   0.000045  -0.090849   8.288572   0.359618
    12  C    0.000243   0.000310  -0.000091   0.380758   0.359618   4.194219
    13  H    0.000309  -0.000005  -0.000001  -0.055595  -0.060242   0.417318
    14  O   -0.000131  -0.000001  -0.002237  -0.000005  -0.000000  -0.000014
    15  O   -0.001016  -0.000107  -0.000013  -0.001287  -0.000003   0.000594
    16  C    0.001091   0.000021   0.000746   0.000557  -0.000013  -0.000018
    17  H    0.000071   0.000001   0.000003   0.000004  -0.000000   0.000001
    18  Fe  -0.000163   0.000015   0.133139   0.000507   0.000406  -0.000169
    19  O   -0.000070  -0.000001  -0.023394   0.000000   0.000017  -0.000069
    20  Fe  -0.016488   0.002058  -0.006531  -0.001922   0.136482  -0.017023
    21  O   -0.000299  -0.000046   0.000574   0.000010  -0.001676   0.000636
    22  O    0.000597   0.000005  -0.082718   0.000087  -0.036626  -0.001105
    23  Fe  -0.017202   0.002922   0.000482   0.130032  -0.008408  -0.016074
    24  O   -0.002244  -0.000475  -0.021282  -0.026117  -0.010030  -0.002066
    25  C    0.000897   0.000050   0.001556  -0.000065   0.000664   0.000279
    26  H    0.000012   0.000000  -0.000092  -0.000000   0.000003   0.000002
    27  C   -0.000003   0.000000   0.346565   0.000141  -0.001883   0.001146
    28  H    0.000001   0.000000  -0.059347   0.000005  -0.000123   0.000072
    29  N   -0.000000   0.000000   0.000133  -0.000000   0.000000   0.000000
    30  N   -0.000000  -0.000000  -0.003179   0.000000   0.000000  -0.000000
    31  O   -0.000001  -0.000000  -0.027888  -0.000001  -0.000000  -0.000000
              13         14         15         16         17         18
     1  O   -0.000045   0.000624  -0.036066  -0.001805  -0.000177  -0.006052
     2  O   -0.000001  -0.024945  -0.001981   0.007873  -0.000025   0.120834
     3  C    0.000051   0.002041  -0.001052  -0.000257   0.000354  -0.014863
     4  H    0.000000  -0.000097  -0.000439   0.000433  -0.000002   0.002062
     5  O   -0.000240  -0.000018   0.000091   0.000126   0.000006   0.000393
     6  O   -0.000285   0.000043  -0.036392  -0.001677  -0.000142   0.000496
     7  C    0.000309  -0.000131  -0.001016   0.001091   0.000071  -0.000163
     8  H   -0.000005  -0.000001  -0.000107   0.000021   0.000001   0.000015
     9  O   -0.000001  -0.002237  -0.000013   0.000746   0.000003   0.133139
    10  O   -0.055595  -0.000005  -0.001287   0.000557   0.000004   0.000507
    11  O   -0.060242  -0.000000  -0.000003  -0.000013  -0.000000   0.000406
    12  C    0.417318  -0.000014   0.000594  -0.000018   0.000001  -0.000169
    13  H    0.631352  -0.000000   0.000005  -0.000000   0.000000   0.000012
    14  O   -0.000000   8.227129  -0.084694   0.364126  -0.058772   0.133573
    15  O    0.000005  -0.084694   8.311464   0.355061  -0.059891  -0.005634
    16  C   -0.000000   0.364126   0.355061   4.204532   0.412991  -0.008755
    17  H    0.000000  -0.058772  -0.059891   0.412991   0.639012   0.002995
    18  Fe   0.000012   0.133573  -0.005634  -0.008755   0.002995  24.249838
    19  O   -0.000000  -0.020457  -0.000029   0.001467  -0.000012   0.114130
    20  Fe   0.002923   0.000392  -0.000295   0.000622   0.000017   0.012135
    21  O    0.000003  -0.000004  -0.000010  -0.000006   0.000001  -0.004984
    22  O   -0.000108  -0.000011  -0.000000  -0.000033  -0.000000  -0.006105
    23  Fe   0.002104  -0.006523   0.141765  -0.014937   0.002578   0.012300
    24  O   -0.000476  -0.020479  -0.025733  -0.003709  -0.000678   0.069391
    25  C    0.000003   0.001727  -0.000040   0.000338   0.000041  -0.011938
    26  H    0.000000  -0.000029  -0.000000   0.000079   0.000000   0.001493
    27  C    0.000024   0.000722  -0.000038   0.000013   0.000002  -0.007570
    28  H    0.000000   0.000003  -0.000000   0.000002   0.000000   0.002609
    29  N    0.000000  -0.000009   0.000000  -0.000002  -0.000000   0.000047
    30  N   -0.000000  -0.000005  -0.000000  -0.000000  -0.000000  -0.000209
    31  O   -0.000000  -0.027261  -0.000030   0.001332   0.000023   0.200006
              19         20         21         22         23         24
     1  O   -0.000002  -0.000194   0.000000  -0.000010   0.153862  -0.010966
     2  O   -0.000792   0.000053  -0.000001  -0.000041   0.002954  -0.025662
     3  C    0.000162   0.000349  -0.000003  -0.000023  -0.023032  -0.002099
     4  H    0.000001   0.000023  -0.000000  -0.000001   0.003568  -0.000472
     5  O    0.000023   0.129510  -0.032420  -0.001255  -0.001866  -0.025967
     6  O   -0.000006  -0.008508  -0.000043  -0.000003   0.137227  -0.009905
     7  C   -0.000070  -0.016488  -0.000299   0.000597  -0.017202  -0.002244
     8  H   -0.000001   0.002058  -0.000046   0.000005   0.002922  -0.000475
     9  O   -0.023394  -0.006531   0.000574  -0.082718   0.000482  -0.021282
    10  O    0.000000  -0.001922   0.000010   0.000087   0.130032  -0.026117
    11  O    0.000017   0.136482  -0.001676  -0.036626  -0.008408  -0.010030
    12  C   -0.000069  -0.017023   0.000636  -0.001105  -0.016074  -0.002066
    13  H   -0.000000   0.002923   0.000003  -0.000108   0.002104  -0.000476
    14  O   -0.020457   0.000392  -0.000004  -0.000011  -0.006523  -0.020479
    15  O   -0.000029  -0.000295  -0.000010  -0.000000   0.141765  -0.025733
    16  C    0.001467   0.000622  -0.000006  -0.000033  -0.014937  -0.003709
    17  H   -0.000012   0.000017   0.000001  -0.000000   0.002578  -0.000678
    18  Fe   0.114130   0.012135  -0.004984  -0.006105   0.012300   0.069391
    19  O    8.278141   0.002182  -0.094555  -0.002477   0.000024  -0.025779
    20  Fe   0.002182  24.371113   0.153996   0.144184   0.016960   0.111281
    21  O   -0.094555   0.153996   8.326181  -0.036517  -0.000153  -0.011061
    22  O   -0.002477   0.144184  -0.036517   8.316536  -0.000283  -0.025473
    23  Fe   0.000024   0.016960  -0.000153  -0.000283  24.370693   0.110171
    24  O   -0.025779   0.111281  -0.011061  -0.025473   0.110171   8.652768
    25  C    0.371067  -0.022475   0.315311  -0.001202   0.000316  -0.002215
    26  H   -0.053535   0.003519  -0.065095  -0.000450   0.000025  -0.000482
    27  C    0.007860  -0.016823  -0.002593   0.345676   0.000533  -0.003789
    28  H    0.000041   0.002594  -0.000196  -0.060152   0.000028  -0.000690
    29  N    0.000993  -0.000001   0.000010  -0.000005   0.000001  -0.000001
    30  N   -0.006398   0.000610  -0.000002   0.000232   0.000001  -0.000008
    31  O   -0.021332   0.000343  -0.000052  -0.000021   0.000268  -0.009075
              25         26         27         28         29         30
     1  O   -0.000003  -0.000000  -0.000029   0.000001   0.000000   0.000000
     2  O    0.000163   0.000001   0.001688  -0.000013  -0.000000  -0.000004
     3  C   -0.000027  -0.000000   0.000316   0.000034  -0.000000  -0.000002
     4  H   -0.000001   0.000000   0.000079  -0.000000  -0.000000  -0.000000
     5  O   -0.000344  -0.000069   0.000578   0.000004   0.000000  -0.000000
     6  O   -0.000154  -0.000001  -0.000013  -0.000000   0.000000  -0.000000
     7  C    0.000897   0.000012  -0.000003   0.000001  -0.000000  -0.000000
     8  H    0.000050   0.000000   0.000000   0.000000   0.000000  -0.000000
     9  O    0.001556  -0.000092   0.346565  -0.059347   0.000133  -0.003179
    10  O   -0.000065  -0.000000   0.000141   0.000005  -0.000000   0.000000
    11  O    0.000664   0.000003  -0.001883  -0.000123   0.000000   0.000000
    12  C    0.000279   0.000002   0.001146   0.000072   0.000000  -0.000000
    13  H    0.000003   0.000000   0.000024   0.000000   0.000000  -0.000000
    14  O    0.001727  -0.000029   0.000722   0.000003  -0.000009  -0.000005
    15  O   -0.000040  -0.000000  -0.000038  -0.000000   0.000000  -0.000000
    16  C    0.000338   0.000079   0.000013   0.000002  -0.000002  -0.000000
    17  H    0.000041   0.000000   0.000002   0.000000  -0.000000  -0.000000
    18  Fe  -0.011938   0.001493  -0.007570   0.002609   0.000047  -0.000209
    19  O    0.371067  -0.053535   0.007860   0.000041   0.000993  -0.006398
    20  Fe  -0.022475   0.003519  -0.016823   0.002594  -0.000001   0.000610
    21  O    0.315311  -0.065095  -0.002593  -0.000196   0.000010  -0.000002
    22  O   -0.001202  -0.000450   0.345676  -0.060152  -0.000005   0.000232
    23  Fe   0.000316   0.000025   0.000533   0.000028   0.000001   0.000001
    24  O   -0.002215  -0.000482  -0.003789  -0.000690  -0.000001  -0.000008
    25  C    4.241232   0.417842   0.000550   0.000376   0.000171  -0.001503
    26  H    0.417842   0.636106   0.000453  -0.000001   0.000088   0.000280
    27  C    0.000550   0.000453   4.227283   0.414418  -0.000055  -0.010359
    28  H    0.000376  -0.000001   0.414418   0.636789  -0.000059   0.001844
    29  N    0.000171   0.000088  -0.000055  -0.000059   6.623938   0.392502
    30  N   -0.001503   0.000280  -0.010359   0.001844   0.392502   6.616299
    31  O    0.000833   0.000092   0.001150   0.000069  -0.003204   0.000970
              31
     1  O   -0.000051
     2  O   -0.021410
     3  C    0.000488
     4  H    0.000083
     5  O   -0.000001
     6  O   -0.000000
     7  C   -0.000001
     8  H   -0.000000
     9  O   -0.027888
    10  O   -0.000001
    11  O   -0.000000
    12  C   -0.000000
    13  H   -0.000000
    14  O   -0.027261
    15  O   -0.000030
    16  C    0.001332
    17  H    0.000023
    18  Fe   0.200006
    19  O   -0.021332
    20  Fe   0.000343
    21  O   -0.000052
    22  O   -0.000021
    23  Fe   0.000268
    24  O   -0.009075
    25  C    0.000833
    26  H    0.000092
    27  C    0.001150
    28  H    0.000069
    29  N   -0.003204
    30  N    0.000970
    31  O    8.338515
          Atomic-Atomic Spin Densities.
               1          2          3          4          5          6
     1  O   -0.160890   0.000763   0.001368   0.000375   0.000001  -0.000627
     2  O    0.000763   0.076704   0.001299   0.000920  -0.000000   0.000005
     3  C    0.001368   0.001299  -0.000733  -0.001966  -0.000000   0.000152
     4  H    0.000375   0.000920  -0.001966  -0.001215  -0.000000  -0.000003
     5  O    0.000001  -0.000000  -0.000000  -0.000000   0.106261  -0.000514
     6  O   -0.000627   0.000005   0.000152  -0.000003  -0.000514  -0.118647
     7  C    0.000153   0.000001  -0.000057   0.000001   0.003537   0.000286
     8  H   -0.000003  -0.000000   0.000001  -0.000000   0.000344   0.000291
     9  O    0.000025  -0.003758   0.000493  -0.000050   0.000003   0.000001
    10  O    0.004420  -0.000011  -0.000598   0.000039  -0.000037   0.004298
    11  O   -0.000013  -0.000006   0.000011  -0.000001  -0.004373  -0.000006
    12  C   -0.000412   0.000013  -0.000110  -0.000002   0.001689  -0.000668
    13  H    0.000056  -0.000000  -0.000018   0.000002  -0.000097   0.000061
    14  O    0.000006  -0.004049   0.000778  -0.000039  -0.000016  -0.000033
    15  O    0.006060   0.000157  -0.001970   0.000149  -0.000043   0.004462
    16  C   -0.000767   0.001178   0.000037   0.000004   0.000013  -0.000557
    17  H    0.000052  -0.000119   0.000043   0.000000  -0.000002   0.000081
    18  Fe   0.000957  -0.039866   0.002526  -0.000224   0.000085   0.000085
    19  O    0.000002   0.000127  -0.000028   0.000001  -0.000014   0.000005
    20  Fe  -0.000011  -0.000247   0.000026  -0.000010  -0.042787   0.002838
    21  O   -0.000000  -0.000001  -0.000001   0.000000  -0.004406   0.000013
    22  O    0.000003  -0.000021   0.000002  -0.000000   0.000822   0.000003
    23  Fe   0.040163  -0.003252   0.008928  -0.000597  -0.003698   0.035215
    24  O    0.005081   0.000049  -0.002036   0.000105  -0.003581   0.003686
    25  C    0.000002  -0.000018   0.000002  -0.000000   0.000614  -0.000012
    26  H    0.000000   0.000001  -0.000000   0.000000  -0.000042   0.000001
    27  C   -0.000007   0.000436  -0.000091   0.000019  -0.000129  -0.000001
    28  H    0.000001  -0.000047   0.000006  -0.000003   0.000004   0.000000
    29  N   -0.000000  -0.000000  -0.000000  -0.000000  -0.000000  -0.000000
    30  N    0.000000  -0.000001  -0.000000   0.000000   0.000000   0.000000
    31  O    0.000028  -0.002916   0.000266  -0.000049  -0.000000   0.000000
               7          8          9         10         11         12
     1  O    0.000153  -0.000003   0.000025   0.004420  -0.000013  -0.000412
     2  O    0.000001  -0.000000  -0.003758  -0.000011  -0.000006   0.000013
     3  C   -0.000057   0.000001   0.000493  -0.000598   0.000011  -0.000110
     4  H    0.000001  -0.000000  -0.000050   0.000039  -0.000001  -0.000002
     5  O    0.003537   0.000344   0.000003  -0.000037  -0.004373   0.001689
     6  O    0.000286   0.000291   0.000001   0.004298  -0.000006  -0.000668
     7  C   -0.003171  -0.002033   0.000001  -0.001665   0.000643   0.000058
     8  H   -0.002033   0.001032   0.000000   0.000095  -0.000063   0.000014
     9  O    0.000001   0.000000   0.089300   0.000012   0.000011  -0.000052
    10  O   -0.001665   0.000095   0.000012  -0.106716   0.000585  -0.003280
    11  O    0.000643  -0.000063   0.000011   0.000585   0.119169  -0.000012
    12  C    0.000058   0.000014  -0.000052  -0.003280  -0.000012   0.002252
    13  H   -0.000009  -0.000000   0.000002  -0.000400  -0.000359   0.002017
    14  O    0.000040  -0.000001   0.000056  -0.000000  -0.000000   0.000002
    15  O   -0.000594   0.000044   0.000005  -0.000808  -0.000003   0.000089
    16  C   -0.000079  -0.000002  -0.000046   0.000124  -0.000001  -0.000015
    17  H   -0.000019   0.000004   0.000001  -0.000003  -0.000000   0.000001
    18  Fe  -0.000058   0.000004  -0.026110   0.000022   0.000011  -0.000004
    19  O   -0.000031   0.000000  -0.003671   0.000001  -0.000003   0.000000
    20  Fe  -0.002857   0.000255   0.003521   0.003382  -0.036032  -0.006856
    21  O    0.000408  -0.000058  -0.000085   0.000000   0.000663  -0.000159
    22  O   -0.000085   0.000004  -0.002095   0.000048  -0.004555   0.000580
    23  Fe   0.007219  -0.000436  -0.000166   0.042225  -0.002915   0.002941
    24  O   -0.000229   0.000031   0.000811   0.003752  -0.003706   0.000192
    25  C    0.000138   0.000018   0.000416  -0.000002  -0.000171   0.000059
    26  H   -0.000001  -0.000002  -0.000051   0.000000   0.000003  -0.000001
    27  C    0.000010  -0.000001  -0.004590  -0.000018   0.000561   0.000147
    28  H   -0.000001   0.000000  -0.000965   0.000002  -0.000095   0.000018
    29  N    0.000000  -0.000000   0.000062  -0.000000   0.000000  -0.000000
    30  N    0.000000   0.000000   0.000163   0.000000   0.000000  -0.000000
    31  O    0.000000   0.000000  -0.001700  -0.000000  -0.000000   0.000000
              13         14         15         16         17         18
     1  O    0.000056   0.000006   0.006060  -0.000767   0.000052   0.000957
     2  O   -0.000000  -0.004049   0.000157   0.001178  -0.000119  -0.039866
     3  C   -0.000018   0.000778  -0.001970   0.000037   0.000043   0.002526
     4  H    0.000002  -0.000039   0.000149   0.000004   0.000000  -0.000224
     5  O   -0.000097  -0.000016  -0.000043   0.000013  -0.000002   0.000085
     6  O    0.000061  -0.000033   0.004462  -0.000557   0.000081   0.000085
     7  C   -0.000009   0.000040  -0.000594  -0.000079  -0.000019  -0.000058
     8  H   -0.000000  -0.000001   0.000044  -0.000002   0.000004   0.000004
     9  O    0.000002   0.000056   0.000005  -0.000046   0.000001  -0.026110
    10  O   -0.000400  -0.000000  -0.000808   0.000124  -0.000003   0.000022
    11  O   -0.000359  -0.000000  -0.000003  -0.000001  -0.000000   0.000011
    12  C    0.002017   0.000002   0.000089  -0.000015   0.000001  -0.000004
    13  H   -0.001017  -0.000000  -0.000003   0.000001  -0.000000   0.000003
    14  O   -0.000000   0.052869   0.000767   0.001956   0.001107  -0.027771
    15  O   -0.000003   0.000767  -0.150784  -0.001346   0.000370   0.001267
    16  C    0.000001   0.001956  -0.001346   0.000056   0.000031   0.000359
    17  H   -0.000000   0.001107   0.000370   0.000031  -0.007555  -0.000175
    18  Fe   0.000003  -0.027771   0.001267   0.000359  -0.000175   3.488566
    19  O   -0.000000  -0.003856   0.000021   0.000428  -0.000045  -0.037751
    20  Fe   0.000465  -0.000294  -0.000231   0.000112  -0.000013  -0.000397
    21  O    0.000004  -0.000027  -0.000001  -0.000006   0.000000   0.000613
    22  O   -0.000045   0.000001  -0.000000  -0.000005   0.000000   0.001214
    23  Fe  -0.000242  -0.003599   0.048660   0.004213  -0.000339  -0.003593
    24  O   -0.000016   0.001612   0.004838  -0.000918   0.000218  -0.008236
    25  C   -0.000001   0.000636  -0.000007  -0.000117   0.000013   0.002264
    26  H    0.000000  -0.000041   0.000000   0.000012  -0.000002  -0.000368
    27  C    0.000001  -0.000054   0.000004   0.000014  -0.000000  -0.000538
    28  H   -0.000004   0.000001   0.000000  -0.000000   0.000000  -0.000096
    29  N    0.000000  -0.000000   0.000000  -0.000000   0.000000  -0.000142
    30  N   -0.000000  -0.000000   0.000000   0.000000   0.000000  -0.000767
    31  O   -0.000000  -0.001336   0.000093   0.000245  -0.000060  -0.139458
              19         20         21         22         23         24
     1  O    0.000002  -0.000011  -0.000000   0.000003   0.040163   0.005081
     2  O    0.000127  -0.000247  -0.000001  -0.000021  -0.003252   0.000049
     3  C   -0.000028   0.000026  -0.000001   0.000002   0.008928  -0.002036
     4  H    0.000001  -0.000010   0.000000  -0.000000  -0.000597   0.000105
     5  O   -0.000014  -0.042787  -0.004406   0.000822  -0.003698  -0.003581
     6  O    0.000005   0.002838   0.000013   0.000003   0.035215   0.003686
     7  C   -0.000031  -0.002857   0.000408  -0.000085   0.007219  -0.000229
     8  H    0.000000   0.000255  -0.000058   0.000004  -0.000436   0.000031
     9  O   -0.003671   0.003521  -0.000085  -0.002095  -0.000166   0.000811
    10  O    0.000001   0.003382   0.000000   0.000048   0.042225   0.003752
    11  O   -0.000003  -0.036032   0.000663  -0.004555  -0.002915  -0.003706
    12  C    0.000000  -0.006856  -0.000159   0.000580   0.002941   0.000192
    13  H   -0.000000   0.000465   0.000004  -0.000045  -0.000242  -0.000016
    14  O   -0.003856  -0.000294  -0.000027   0.000001  -0.003599   0.001612
    15  O    0.000021  -0.000231  -0.000001  -0.000000   0.048660   0.004838
    16  C    0.000428   0.000112  -0.000006  -0.000005   0.004213  -0.000918
    17  H   -0.000045  -0.000013   0.000000   0.000000  -0.000339   0.000218
    18  Fe  -0.037751  -0.000397   0.000613   0.001214  -0.003593  -0.008236
    19  O    0.111987   0.003488  -0.000596  -0.000419   0.000056   0.000830
    20  Fe   0.003488   4.505983  -0.038604  -0.048141  -0.000145  -0.119844
    21  O   -0.000596  -0.038604   0.171401  -0.005918   0.000002  -0.005379
    22  O   -0.000419  -0.048141  -0.005918   0.166324   0.000224  -0.004983
    23  Fe   0.000056  -0.000145   0.000002   0.000224  -4.496362   0.124969
    24  O    0.000830  -0.119844  -0.005379  -0.004983   0.124969  -0.010140
    25  C   -0.009993  -0.009736  -0.002525   0.001751   0.000065   0.001552
    26  H   -0.001401   0.000456  -0.002343  -0.000182   0.000013  -0.000134
    27  C   -0.000122  -0.005384   0.000836  -0.001918  -0.000020   0.000603
    28  H   -0.000175   0.000066  -0.000051  -0.001994   0.000006  -0.000189
    29  N    0.000056   0.000003  -0.000000  -0.000005   0.000000  -0.000000
    30  N    0.000186   0.000013  -0.000007  -0.000036   0.000001  -0.000001
    31  O   -0.003255   0.000022   0.000007  -0.000010  -0.000107  -0.000287
              25         26         27         28         29         30
     1  O    0.000002   0.000000  -0.000007   0.000001  -0.000000   0.000000
     2  O   -0.000018   0.000001   0.000436  -0.000047  -0.000000  -0.000001
     3  C    0.000002  -0.000000  -0.000091   0.000006  -0.000000  -0.000000
     4  H   -0.000000   0.000000   0.000019  -0.000003  -0.000000   0.000000
     5  O    0.000614  -0.000042  -0.000129   0.000004  -0.000000   0.000000
     6  O   -0.000012   0.000001  -0.000001   0.000000  -0.000000   0.000000
     7  C    0.000138  -0.000001   0.000010  -0.000001   0.000000   0.000000
     8  H    0.000018  -0.000002  -0.000001   0.000000  -0.000000   0.000000
     9  O    0.000416  -0.000051  -0.004590  -0.000965   0.000062   0.000163
    10  O   -0.000002   0.000000  -0.000018   0.000002  -0.000000   0.000000
    11  O   -0.000171   0.000003   0.000561  -0.000095   0.000000   0.000000
    12  C    0.000059  -0.000001   0.000147   0.000018  -0.000000  -0.000000
    13  H   -0.000001   0.000000   0.000001  -0.000004   0.000000  -0.000000
    14  O    0.000636  -0.000041  -0.000054   0.000001  -0.000000  -0.000000
    15  O   -0.000007   0.000000   0.000004   0.000000   0.000000   0.000000
    16  C   -0.000117   0.000012   0.000014  -0.000000  -0.000000   0.000000
    17  H    0.000013  -0.000002  -0.000000   0.000000   0.000000   0.000000
    18  Fe   0.002264  -0.000368  -0.000538  -0.000096  -0.000142  -0.000767
    19  O   -0.009993  -0.001401  -0.000122  -0.000175   0.000056   0.000186
    20  Fe  -0.009736   0.000456  -0.005384   0.000066   0.000003   0.000013
    21  O   -0.002525  -0.002343   0.000836  -0.000051  -0.000000  -0.000007
    22  O    0.001751  -0.000182  -0.001918  -0.001994  -0.000005  -0.000036
    23  Fe   0.000065   0.000013  -0.000020   0.000006   0.000000   0.000001
    24  O    0.001552  -0.000134   0.000603  -0.000189  -0.000000  -0.000001
    25  C    0.015275  -0.001391  -0.000136   0.000051  -0.000008   0.000046
    26  H   -0.001391   0.023312   0.000020  -0.000014   0.000015  -0.000003
    27  C   -0.000136   0.000020   0.009429  -0.003457  -0.000024   0.000018
    28  H    0.000051  -0.000014  -0.003457   0.021823   0.000007   0.000052
    29  N   -0.000008   0.000015  -0.000024   0.000007  -0.004604   0.003535
    30  N    0.000046  -0.000003   0.000018   0.000052   0.003535  -0.001091
    31  O    0.000462  -0.000047   0.000398  -0.000077   0.000169   0.000259
              31
     1  O    0.000028
     2  O   -0.002916
     3  C    0.000266
     4  H   -0.000049
     5  O   -0.000000
     6  O    0.000000
     7  C    0.000000
     8  H    0.000000
     9  O   -0.001700
    10  O   -0.000000
    11  O   -0.000000
    12  C    0.000000
    13  H   -0.000000
    14  O   -0.001336
    15  O    0.000093
    16  C    0.000245
    17  H   -0.000060
    18  Fe  -0.139458
    19  O   -0.003255
    20  Fe   0.000022
    21  O    0.000007
    22  O   -0.000010
    23  Fe  -0.000107
    24  O   -0.000287
    25  C    0.000462
    26  H   -0.000047
    27  C    0.000398
    28  H   -0.000077
    29  N    0.000169
    30  N    0.000259
    31  O    0.729493
 Mulliken charges and spin densities:
               1          2
     1  O   -0.548519  -0.103214
     2  O   -0.515913   0.027341
     3  C    0.689488   0.008329
     4  H    0.059116  -0.002543
     5  O   -0.545418   0.053633
     6  O   -0.531626  -0.069586
     7  C    0.683616   0.001608
     8  H    0.062741  -0.000462
     9  O   -0.492982   0.051545
    10  O   -0.545340  -0.054532
    11  O   -0.531622   0.069343
    12  C    0.683527  -0.001499
    13  H    0.062892   0.000400
    14  O   -0.484688   0.018715
    15  O   -0.554227  -0.088803
    16  C    0.679803   0.004924
    17  H    0.061600  -0.006411
    18  Fe   1.010060   3.212421
    19  O   -0.527199   0.055829
    20  Fe   0.998914   4.209041
    21  O   -0.547007   0.113779
    22  O   -0.552697   0.100562
    23  Fe   0.999664  -4.200565
    24  O   -0.676678  -0.011350
    25  C    0.686552  -0.000755
    26  H    0.059758   0.017809
    27  C    0.693956  -0.003997
    28  H    0.061691   0.014866
    29  N   -0.014546  -0.000937
    30  N    0.008931   0.002366
    31  O   -0.433845   0.582143
 Sum of Mulliken charges =  -0.00000   4.00000
 Mulliken charges and spin densities with hydrogens summed into heavy atoms:
               1          2
     1  O   -0.548519  -0.103214
     2  O   -0.515913   0.027341
     3  C    0.748604   0.005786
     5  O   -0.545418   0.053633
     6  O   -0.531626  -0.069586
     7  C    0.746357   0.001146
     9  O   -0.492982   0.051545
    10  O   -0.545340  -0.054532
    11  O   -0.531622   0.069343
    12  C    0.746419  -0.001099
    14  O   -0.484688   0.018715
    15  O   -0.554227  -0.088803
    16  C    0.741403  -0.001487
    18  Fe   1.010060   3.212421
    19  O   -0.527199   0.055829
    20  Fe   0.998914   4.209041
    21  O   -0.547007   0.113779
    22  O   -0.552697   0.100562
    23  Fe   0.999664  -4.200565
    24  O   -0.676678  -0.011350
    25  C    0.746310   0.017054
    27  C    0.755647   0.010869
    29  N   -0.014546  -0.000937
    30  N    0.008931   0.002366
    31  O   -0.433845   0.582143
         Mulliken charges and spin densities condensed to fragments:
      1     -1.892499      0.206881
      2     -0.005615      0.001429
      3     -0.676678     -0.011350
      4      1.010060      3.212421
      5      0.998914      4.209041
      6      0.999664     -4.200565
      7     -0.433845      0.582143
 Electronic spatial extent (au):  <R**2>=           7814.6761
 Charge=             -0.0000 electrons
 Dipole moment (field-independent basis, Debye):
    X=              3.5998    Y=              2.1702    Z=             -0.3359  Tot=              4.2167
 Quadrupole moment (field-independent basis, Debye-Ang):
   XX=           -166.7931   YY=           -162.9649   ZZ=           -151.1928
   XY=             -6.1003   XZ=              2.4287   YZ=              0.0623
 Traceless Quadrupole moment (field-independent basis, Debye-Ang):
   XX=             -6.4762   YY=             -2.6479   ZZ=              9.1241
   XY=             -6.1003   XZ=              2.4287   YZ=              0.0623
 Octapole moment (field-independent basis, Debye-Ang**2):
  XXX=             71.4687  YYY=            -16.3265  ZZZ=             -2.7556  XYY=             36.4791
  XXY=             63.6783  XXZ=             -5.6858  XZZ=             17.6387  YZZ=              4.3728
  YYZ=             -3.2273  XYZ=             -8.6537
 Hexadecapole moment (field-independent basis, Debye-Ang**3):
 XXXX=          -4718.7991 YYYY=          -2761.2026 ZZZZ=          -1542.8438 XXXY=            -39.6606
 XXXZ=            168.0184 YYYX=            -54.1172 YYYZ=             12.2026 ZZZX=            113.3725
 ZZZY=            -13.0036 XXYY=          -1258.2493 XXZZ=          -1006.0902 YYZZ=           -680.9220
 XXYZ=             18.6707 YYXZ=             25.7101 ZZXY=            -12.7574
 N-N= 4.458111209167D+03 E-N=-2.122386324910D+04  KE= 5.178148030609D+03
 There are a total of      739152 grid points.
 ElSum from          density=      246.0000494412
 ElSum from atomic densities=      246.0001061873

 Hirshfeld populations at iteration   1 (CX, CA, CB, DipXYZ):
               1          2          3          4          5          6
     1  O    0.000000   4.053903   4.176636  -0.070745  -0.015282   0.010879
     2  O    0.000000   4.126064   4.078220   0.046432   0.016391  -0.007217
     3  C    0.000000   2.896631   2.900751   0.008606  -0.011673  -0.021794
     4  H    0.000000   0.473318   0.475881  -0.004714  -0.099478  -0.103125
     5  O    0.000000   4.152323   4.072436   0.030766  -0.055590   0.003427
     6  O    0.000000   4.067386   4.157907  -0.034160   0.056001   0.002877
     7  C    0.000000   2.897974   2.898937   0.013741   0.005663   0.022459
     8  H    0.000000   0.473354   0.474135   0.095885   0.056562   0.093107
     9  O    0.000000   4.129953   4.066327   0.021454   0.048457   0.013674
    10  O    0.000000   4.072184   4.152399  -0.038854   0.050317  -0.002576
    11  O    0.000000   4.157914   4.067099   0.036934  -0.054039  -0.003320
    12  C    0.000000   2.898935   2.897845   0.007432   0.008370  -0.024505
    13  H    0.000000   0.474061   0.473349   0.076625   0.055708  -0.109994
    14  O    0.000000   4.115641   4.077425   0.049107  -0.004594  -0.020527
    15  O    0.000000   4.057870   4.168894  -0.067055   0.003177   0.021021
    16  C    0.000000   2.893562   2.899666   0.005877  -0.016632   0.014313
    17  H    0.000000   0.471420   0.476277   0.021692  -0.081061   0.116807
    18  Fe   0.000000  14.350053  11.196150   0.062334   0.020408  -0.003417
    19  O    0.000000   4.138500   4.068925   0.037716   0.036682   0.000364
    20  Fe   0.000000  14.736277  10.685195   0.005467   0.343537   0.009191
    21  O    0.000000   4.180933   4.049744  -0.043908  -0.058459  -0.000924
    22  O    0.000000   4.173478   4.053154  -0.026035  -0.063548  -0.013771
    23  Fe   0.000000  10.691195  14.732398   0.312410  -0.138603  -0.038448
    24  O    0.000000   4.157596   4.146780  -0.024192  -0.015898   0.002043
    25  C    0.000000   2.908682   2.890416   0.002178   0.014541   0.024052
    26  H    0.000000   0.482065   0.468597  -0.076948   0.045860   0.110996
    27  C    0.000000   2.905834   2.890298   0.002045   0.010940  -0.021416
    28  H    0.000000   0.479981   0.469311  -0.076651   0.044817  -0.113206
    29  N    0.000000   3.495881   3.495195   0.040136   0.020770  -0.026214
    30  N    0.000000   3.499782   3.499038  -0.010022  -0.047471   0.022296
    31  O    0.000000   4.387273   3.840641  -0.032707  -0.023072   0.003347
       Tot   0.000000 125.000024 121.000026   0.370847   0.152800  -0.039599

 Dip from Atomic Chgs              1.045509   0.701039  -0.092599
         Total Dipole              1.416356   0.853839  -0.132198

 Hirshfeld charges, spin densities, dipoles, and CM5 charges using IRadAn=      5:
              Q-H        S-H        Dx         Dy         Dz        Q-CM5   
     1  O   -0.230539  -0.122732  -0.070745  -0.015282   0.010879  -0.342212
     2  O   -0.204283   0.047844   0.046432   0.016391  -0.007217  -0.298681
     3  C    0.202618  -0.004119   0.008606  -0.011673  -0.021794   0.214554
     4  H    0.050801  -0.002564  -0.004714  -0.099478  -0.103125   0.122883
     5  O   -0.224759   0.079887   0.030766  -0.055590   0.003427  -0.325976
     6  O   -0.225294  -0.090521  -0.034160   0.056001   0.002877  -0.330569
     7  C    0.203089  -0.000962   0.013741   0.005663   0.022459   0.215111
     8  H    0.052511  -0.000780   0.095885   0.056562   0.093107   0.124587
     9  O   -0.196280   0.063625   0.021454   0.048457   0.013674  -0.299634
    10  O   -0.224582  -0.080215  -0.038854   0.050317  -0.002576  -0.325820
    11  O   -0.225013   0.090815   0.036934  -0.054039  -0.003320  -0.330348
    12  C    0.203219   0.001090   0.007432   0.008370  -0.024505   0.215234
    13  H    0.052590   0.000713   0.076625   0.055708  -0.109994   0.124669
    14  O   -0.193067   0.038216   0.049107  -0.004594  -0.020527  -0.296743
    15  O   -0.226765  -0.111024  -0.067055   0.003177   0.021021  -0.335330
    16  C    0.206772  -0.006104   0.005877  -0.016632   0.014313   0.219273
    17  H    0.052303  -0.004857   0.021692  -0.081061   0.116807   0.124612
    18  Fe   0.453797   3.153903   0.062334   0.020408  -0.003417   0.881505
    19  O   -0.207425   0.069574   0.037716   0.036682   0.000364  -0.300890
    20  Fe   0.578528   4.051083   0.005467   0.343537   0.009191   0.928712
    21  O   -0.230677   0.131190  -0.043908  -0.058459  -0.000924  -0.342177
    22  O   -0.226632   0.120324  -0.026035  -0.063548  -0.013771  -0.335298
    23  Fe   0.576407  -4.041202   0.312410  -0.138603  -0.038448   0.926567
    24  O   -0.304376   0.010816  -0.024192  -0.015898   0.002043  -0.533522
    25  C    0.200902   0.018266   0.002178   0.014541   0.024052   0.213126
    26  H    0.049339   0.013468  -0.076948   0.045860   0.110996   0.121590
    27  C    0.203868   0.015536   0.002045   0.010940  -0.021416   0.216828
    28  H    0.050708   0.010670  -0.076651   0.044817  -0.113206   0.123509
    29  N    0.008925   0.000686   0.040136   0.020770  -0.026214   0.007958
    30  N    0.001180   0.000744  -0.010022  -0.047471   0.022296  -0.001749
    31  O   -0.227914   0.546632  -0.032707  -0.023072   0.003347  -0.381818
       Tot  -0.000049   3.999998   0.370847   0.152800  -0.039599  -0.000049
 Hirshfeld charges and spin densities with hydrogens summed into heavy atoms:
              Q-H        S-H       Q-CM5   
     1  O   -0.230539  -0.122732  -0.342212
     2  O   -0.204283   0.047844  -0.298681
     3  C    0.253419  -0.006683   0.337437
     5  O   -0.224759   0.079887  -0.325976
     6  O   -0.225294  -0.090521  -0.330569
     7  C    0.255600  -0.001743   0.339697
     9  O   -0.196280   0.063625  -0.299634
    10  O   -0.224582  -0.080215  -0.325820
    11  O   -0.225013   0.090815  -0.330348
    12  C    0.255809   0.001802   0.339902
    14  O   -0.193067   0.038216  -0.296743
    15  O   -0.226765  -0.111024  -0.335330
    16  C    0.259075  -0.010961   0.343885
    18  Fe   0.453797   3.153903   0.881505
    19  O   -0.207425   0.069574  -0.300890
    20  Fe   0.578528   4.051083   0.928712
    21  O   -0.230677   0.131190  -0.342177
    22  O   -0.226632   0.120324  -0.335298
    23  Fe   0.576407  -4.041202   0.926567
    24  O   -0.304376   0.010816  -0.533522
    25  C    0.250241   0.031734   0.334717
    27  C    0.254576   0.026205   0.340337
    29  N    0.008925   0.000686   0.007958
    30  N    0.001180   0.000744  -0.001749
    31  O   -0.227914   0.546632  -0.381818
         Hirshfeld charges and spin densities condensed to fragments:
      1     -1.086596      0.277337
      2      0.010105      0.001430
      3     -0.304376      0.010816
      4      0.453797      3.153903
      5      0.578528      4.051083
      6      0.576407     -4.041202
      7     -0.227914      0.546632
 
 EQQ= -1.45067755475     EQD=-0.103875421382     EDD=-0.815014001223E-03
 EQQ+QD+DD= -1.55536799014    
 
                          Isotropic Fermi Contact Couplings
        Atom                 a.u.       MegaHertz       Gauss      10(-4) cm-1
     1  O(17)             -0.08742      13.24766       4.72709       4.41894
     2  O(17)              0.09195     -13.93493      -4.97233      -4.64819
     3  C(13)              0.00312       0.87746       0.31310       0.29269
     4  H(1)              -0.00169      -1.88975      -0.67431      -0.63035
     5  O(17)              0.09960     -15.09466      -5.38615      -5.03504
     6  O(17)             -0.07766      11.76888       4.19943       3.92568
     7  C(13)              0.00148       0.41564       0.14831       0.13864
     8  H(1)              -0.00059      -0.65436      -0.23349      -0.21827
     9  O(17)              0.06691     -10.13978      -3.61813      -3.38227
    10  O(17)             -0.09945      15.07093       5.37768       5.02712
    11  O(17)              0.07850     -11.89710      -4.24518      -3.96845
    12  C(13)             -0.00139      -0.39129      -0.13962      -0.13052
    13  H(1)               0.00054       0.59864       0.21361       0.19969
    14  O(17)              0.05665      -8.58453      -3.06317      -2.86349
    15  O(17)             -0.11077      16.78735       5.99014       5.59966
    16  C(13)              0.00190       0.53353       0.19038       0.17797
    17  H(1)              -0.00308      -3.44383      -1.22884      -1.14874
    18  Fe(57)             0.25193       9.13499       3.25959       3.04711
    19  O(17)              0.09698     -14.69671      -5.24415      -4.90229
    20  Fe(57)             0.65286      23.67282       8.44705       7.89640
    21  O(17)              0.09203     -13.94630      -4.97639      -4.65198
    22  O(17)              0.11312     -17.14248      -6.11686      -5.71811
    23  Fe(57)            -0.64307     -23.31772      -8.32034      -7.77795
    24  O(17)              0.00815      -1.23534      -0.44080      -0.41206
    25  C(13)             -0.00231      -0.64932      -0.23169      -0.21659
    26  H(1)               0.00803       8.97863       3.20380       2.99495
    27  C(13)             -0.00226      -0.63385      -0.22617      -0.21143
    28  H(1)               0.00613       6.85265       2.44520       2.28580
    29  N(14)              0.00086       0.06948       0.02479       0.02318
    30  N(14)              0.00062       0.05006       0.01786       0.01670
    31  O(17)              0.12771     -19.35421      -6.90606      -6.45587
 --------------------------------------------------------
       Center         ----  Spin Dipole Couplings  ----
                      3XX-RR        3YY-RR        3ZZ-RR
 --------------------------------------------------------
     1   Atom        0.250713     -0.066933     -0.183780
     2   Atom       -0.128334      0.051859      0.076475
     3   Atom       -0.000450     -0.007577      0.008027
     4   Atom        0.001481     -0.001169     -0.000313
     5   Atom        0.073206     -0.105598      0.032392
     6   Atom       -0.053462      0.149825     -0.096364
     7   Atom        0.059644     -0.048572     -0.011072
     8   Atom        0.020505     -0.015960     -0.004545
     9   Atom       -0.026986     -0.075027      0.102013
    10   Atom        0.049086      0.070001     -0.119087
    11   Atom       -0.065774     -0.110796      0.176569
    12   Atom        0.049150     -0.058674      0.009523
    13   Atom        0.015593     -0.018838      0.003245
    14   Atom       -0.128156     -0.003732      0.131888
    15   Atom        0.197997     -0.080843     -0.117154
    16   Atom        0.010281      0.010192     -0.020472
    17   Atom        0.005472      0.002374     -0.007846
    18   Atom       -1.680360      0.229333      1.451027
    19   Atom       -0.050031     -0.022558      0.072589
    20   Atom        0.072520     -0.134770      0.062250
    21   Atom       -0.100725     -0.113929      0.214654
    22   Atom        0.055834     -0.120210      0.064376
    23   Atom        0.162537     -0.071626     -0.090911
    24   Atom       -0.376689      0.365011      0.011678
    25   Atom       -0.001348      0.000047      0.001301
    26   Atom       -0.003499     -0.006479      0.009978
    27   Atom       -0.016540      0.012625      0.003915
    28   Atom       -0.003904     -0.005514      0.009418
    29   Atom        0.015062     -0.005218     -0.009844
    30   Atom        0.017234     -0.004257     -0.012977
    31   Atom       -1.299038      0.203769      1.095269
 --------------------------------------------------------
                        XY            XZ            YZ
 --------------------------------------------------------
     1   Atom        0.056056      0.010407     -0.281346
     2   Atom       -0.063314     -0.038226      0.204952
     3   Atom       -0.053847     -0.054157     -0.015395
     4   Atom       -0.017731     -0.018003     -0.003165
     5   Atom        0.122151      0.211423      0.109488
     6   Atom       -0.142915     -0.235303     -0.119186
     7   Atom       -0.032171      0.021099     -0.048486
     8   Atom       -0.008220      0.007740     -0.014310
     9   Atom       -0.039486      0.105451     -0.054919
    10   Atom       -0.101498      0.180013      0.151429
    11   Atom        0.142118     -0.198285     -0.172938
    12   Atom       -0.006331     -0.046607      0.042659
    13   Atom       -0.001655     -0.015454      0.012504
    14   Atom       -0.068564      0.067202     -0.131875
    15   Atom        0.040817     -0.072824      0.258338
    16   Atom       -0.035335      0.063933      0.007578
    17   Atom       -0.014649      0.020050      0.002705
    18   Atom       -1.929337      0.099288      0.458051
    19   Atom       -0.096051     -0.098503      0.100403
    20   Atom       -0.014165      0.043817      0.010799
    21   Atom       -0.154786     -0.194959      0.182692
    22   Atom       -0.125041      0.209497     -0.163460
    23   Atom       -0.049087      0.003626      0.041730
    24   Atom        0.179788     -0.011106     -0.049120
    25   Atom        0.031927     -0.040365      0.014323
    26   Atom        0.000763     -0.019770      0.009659
    27   Atom        0.028170      0.040191     -0.004481
    28   Atom        0.001397      0.020084     -0.008076
    29   Atom       -0.004780     -0.002434      0.000499
    30   Atom       -0.009167      0.001335     -0.000694
    31   Atom       -1.524211      0.215711      0.110047
 --------------------------------------------------------


 ---------------------------------------------------------------------------------
              Anisotropic Spin Dipole Couplings in Principal Axis System
 ---------------------------------------------------------------------------------

       Atom             a.u.   MegaHertz   Gauss  10(-4) cm-1        Axes

              Baa    -0.4155    30.069    10.729    10.030 -0.0653  0.6330  0.7714
     1 O(17)  Bbb     0.1490   -10.783    -3.848    -3.597 -0.3314  0.7154 -0.6151
              Bcc     0.2665   -19.286    -6.882    -6.433  0.9412  0.2958 -0.1631
 
              Baa    -0.1605    11.616     4.145     3.875  0.6934  0.5966 -0.4041
     2 O(17)  Bbb    -0.1214     8.781     3.133     2.929  0.6999 -0.4242  0.5747
              Bcc     0.2819   -20.397    -7.278    -6.804 -0.1715  0.6813  0.7117
 
              Baa    -0.0849   -11.386    -4.063    -3.798  0.6698  0.5632  0.4839
     3 C(13)  Bbb     0.0154     2.065     0.737     0.689 -0.1119  0.7209 -0.6840
              Bcc     0.0695     9.321     3.326     3.109  0.7340 -0.4040 -0.5459
 
              Baa    -0.0266   -14.205    -5.069    -4.738  0.6685  0.5305  0.5212
     4 H(1)   Bbb     0.0024     1.290     0.460     0.430 -0.0190  0.7128 -0.7011
              Bcc     0.0242    12.916     4.609     4.308  0.7434 -0.4588 -0.4866
 
              Baa    -0.1679    12.147     4.334     4.052 -0.3409  0.9284 -0.1477
     5 O(17)  Bbb    -0.1595    11.540     4.118     3.849 -0.6355 -0.1118  0.7640
              Bcc     0.3274   -23.687    -8.452    -7.901  0.6928  0.3543  0.6281
 
              Baa    -0.3760    27.206     9.708     9.075  0.6475  0.3315  0.6862
     6 O(17)  Bbb     0.1524   -11.028    -3.935    -3.678 -0.6005 -0.3324  0.7273
              Bcc     0.2236   -16.179    -5.773    -5.397 -0.4692  0.8830  0.0161
 
              Baa    -0.0834   -11.196    -3.995    -3.735  0.1107  0.8403  0.5307
     7 C(13)  Bbb     0.0013     0.181     0.065     0.060 -0.5029 -0.4133  0.7592
              Bcc     0.0821    11.015     3.930     3.674  0.8573 -0.3509  0.3768
 
              Baa    -0.0258   -13.767    -4.912    -4.592  0.0580  0.8378  0.5429
     8 H(1)   Bbb    -0.0005    -0.293    -0.104    -0.098 -0.4591 -0.4605  0.7597
              Bcc     0.0264    14.059     5.017     4.690  0.8865 -0.2933  0.3579
 
              Baa    -0.0975     7.057     2.518     2.354  0.5750  0.8143 -0.0798
     9 O(17)  Bbb    -0.0814     5.890     2.102     1.965  0.6632 -0.5210 -0.5373
              Bcc     0.1789   -12.947    -4.620    -4.319  0.4791 -0.2561  0.8396
 
              Baa    -0.3191    23.087     8.238     7.701 -0.4895 -0.4242  0.7619
    10 O(17)  Bbb     0.1538   -11.131    -3.972    -3.713  0.0974  0.8416  0.5312
              Bcc     0.1652   -11.956    -4.266    -3.988  0.8666 -0.3342  0.3707
 
              Baa    -0.2322    16.803     5.996     5.605 -0.6380  0.7698  0.0162
    11 O(17)  Bbb    -0.1538    11.131     3.972     3.713  0.6089  0.4915  0.6227
              Bcc     0.3860   -27.934    -9.968    -9.318 -0.4714 -0.4071  0.7823
 
              Baa    -0.0811   -10.877    -3.881    -3.628 -0.1279  0.8703 -0.4757
    12 C(13)  Bbb    -0.0051    -0.679    -0.242    -0.227  0.6127  0.4465  0.6521
              Bcc     0.0861    11.557     4.124     3.855  0.7799 -0.2080 -0.5904
 
              Baa    -0.0252   -13.425    -4.790    -4.478 -0.1394  0.8761 -0.4615
    13 H(1)   Bbb    -0.0025    -1.333    -0.476    -0.445  0.6050  0.4443  0.6607
              Bcc     0.0277    14.758     5.266     4.923  0.7839 -0.1871 -0.5920
 
              Baa    -0.1589    11.498     4.103     3.835  0.9277  0.3705 -0.0464
    14 O(17)  Bbb    -0.0774     5.597     1.997     1.867 -0.2787  0.7696  0.5745
              Bcc     0.2363   -17.095    -6.100    -5.702  0.2485 -0.5201  0.8172
 
              Baa    -0.3696    26.742     9.542     8.920  0.1416 -0.6711  0.7277
    15 O(17)  Bbb     0.1532   -11.084    -3.955    -3.697  0.3242  0.7260  0.6065
              Bcc     0.2164   -15.658    -5.587    -5.223  0.9353 -0.1500 -0.3204
 
              Baa    -0.0798   -10.712    -3.822    -3.573 -0.6278 -0.3067  0.7154
    16 C(13)  Bbb     0.0094     1.267     0.452     0.423  0.1211  0.8695  0.4790
              Bcc     0.0704     9.445     3.370     3.150  0.7689 -0.3873  0.5087
 
              Baa    -0.0266   -14.218    -5.073    -4.742 -0.6077 -0.3721  0.7016
    17 H(1)   Bbb     0.0015     0.798     0.285     0.266  0.1527  0.8122  0.5631
              Bcc     0.0252    13.420     4.789     4.476  0.7794 -0.4493  0.4367
 
              Baa    -2.9028   -50.255   -17.932   -16.763  0.8441  0.5309 -0.0751
    18 Fe(57) Bbb     1.1147    19.298     6.886     6.437  0.4332 -0.5926  0.6791
              Bcc     1.7881    30.957    11.046    10.326 -0.3161  0.6058  0.7302
 
              Baa    -0.1340     9.698     3.461     3.235  0.7902  0.6074  0.0815
    19 O(17)  Bbb    -0.0733     5.301     1.891     1.768  0.3969 -0.6086  0.6871
              Bcc     0.2073   -14.999    -5.352    -5.003 -0.4670  0.5105  0.7220
 
              Baa    -0.1367    -2.367    -0.845    -0.790  0.0824  0.9940 -0.0721
    20 Fe(57) Bbb     0.0252     0.436     0.156     0.145 -0.6575  0.1086  0.7455
              Bcc     0.1115     1.931     0.689     0.644  0.7489 -0.0140  0.6625
 
              Baa    -0.2623    18.979     6.772     6.331  0.6993  0.7147  0.0121
    21 O(17)  Bbb    -0.1488    10.764     3.841     3.591  0.5709 -0.5687  0.5922
              Bcc     0.4111   -29.743   -10.613    -9.921 -0.4301  0.4072  0.8057
 
              Baa    -0.2157    15.607     5.569     5.206  0.0210  0.8702  0.4922
    22 O(17)  Bbb    -0.1416    10.245     3.656     3.417  0.7770  0.2956 -0.5557
              Bcc     0.3573   -25.851    -9.224    -8.623  0.6291 -0.3941  0.6700
 
              Baa    -0.1281    -2.218    -0.792    -0.740 -0.1199 -0.6551  0.7460
    23 Fe(57) Bbb    -0.0444    -0.768    -0.274    -0.256  0.1612  0.7286  0.6657
              Bcc     0.1725     2.986     1.066     0.996  0.9796 -0.2001 -0.0182
 
              Baa    -0.4180    30.244    10.792    10.088  0.9746 -0.2238 -0.0004
    24 O(17)  Bbb     0.0054    -0.387    -0.138    -0.129  0.0283  0.1214  0.9922
              Bcc     0.4126   -29.857   -10.654    -9.959  0.2220  0.9670 -0.1246
 
              Baa    -0.0591    -7.937    -2.832    -2.648  0.6645 -0.4940  0.5607
    25 C(13)  Bbb     0.0144     1.927     0.688     0.643  0.0903  0.7979  0.5960
              Bcc     0.0448     6.010     2.145     2.005  0.7418  0.3453 -0.5748
 
              Baa    -0.0207   -11.021    -3.933    -3.676  0.6890 -0.4331  0.5812
    26 H(1)   Bbb    -0.0052    -2.783    -0.993    -0.928  0.4841  0.8717  0.0757
              Bcc     0.0259    13.804     4.926     4.605 -0.5394  0.2292  0.8102
 
              Baa    -0.0570    -7.652    -2.730    -2.552  0.7712 -0.3463 -0.5341
    27 C(13)  Bbb     0.0139     1.861     0.664     0.621 -0.0608  0.7952 -0.6033
              Bcc     0.0432     5.791     2.066     1.932  0.6336  0.4978  0.5922
 
              Baa    -0.0208   -11.081    -3.954    -3.696  0.7229 -0.3739 -0.5810
    28 H(1)   Bbb    -0.0043    -2.269    -0.810    -0.757  0.4130  0.9080 -0.0704
              Bcc     0.0250    13.350     4.764     4.453  0.5539 -0.1891  0.8108
 
              Baa    -0.0101    -0.389    -0.139    -0.130  0.0947 -0.0090  0.9955
    29 N(14)  Bbb    -0.0063    -0.243    -0.087    -0.081  0.2172  0.9761 -0.0118
              Bcc     0.0164     0.631     0.225     0.211  0.9715 -0.2173 -0.0944
 
              Baa    -0.0130    -0.503    -0.180    -0.168 -0.0295  0.0480  0.9984
    30 N(14)  Bbb    -0.0076    -0.294    -0.105    -0.098  0.3474  0.9371 -0.0348
              Bcc     0.0207     0.798     0.285     0.266  0.9373 -0.3458  0.0443
 
              Baa    -2.2643   163.845    58.464    54.653  0.8472  0.5264 -0.0716
    31 O(17)  Bbb     1.1039   -79.876   -28.502   -26.644 -0.1512  0.3682  0.9173
              Bcc     1.1604   -83.969   -29.962   -28.009 -0.5093  0.7664 -0.3916
 

 ---------------------------------------------------------------------------------

 Unable to Open any file for archive entry.
 1\1\GINC-NODE0125\SP\UM06L\def2TZVP\C6H6Fe3N2O14(5)\SVICCHI\30-Mar-202
 3\0\\# SP Geom=AllCheckpoint um06l/Def2TZVP int=grid=ultrafine scf=(xq
 c,intrep,maxconventionalcycle=1000) pop=(CM5) nosymm guess=read\\FeFeF
 e-B-0xH2O\\0,5\O,0,1.713511,-2.143781,-1.638333\O,0,-0.475155,-2.50927
 7,-1.2049\C,0,0.58459,-2.70609,-1.811096\H,0,0.575286,-3.466052,-2.610
 925\O,0,1.952173,2.037445,1.157128\O,0,3.122126,0.114603,1.127593\C,0,
 2.900296,1.296706,1.494662\H,0,3.631024,1.723742,2.200523\O,0,-2.11766
 6,-0.096457,-1.453853\O,0,2.679655,0.512148,-1.570821\O,0,1.39919,2.36
 3167,-1.531321\C,0,2.335444,1.645942,-1.967757\H,0,2.916023,2.072315,-
 2.801826\O,0,-0.540189,-2.096826,1.713949\O,0,1.647319,-2.249058,1.170
 544\C,0,0.633189,-2.472464,1.886435\H,0,0.815057,-3.088765,2.783203\Fe
 ,0,-1.392864,-1.133895,0.137954\O,0,-2.097064,0.375189,1.472187\Fe,0,0
 .250665,1.813181,0.021995\O,0,-0.833523,2.245843,1.593189\O,0,-1.34079
 ,2.00305,-1.154979\Fe,0,1.955246,-0.840346,-0.199967\O,0,0.281088,-0.0
 48023,-0.013288\C,0,-1.775911,1.469725,1.951195\H,0,-2.371466,1.842262
 ,2.802192\C,0,-2.033784,1.115627,-1.723285\H,0,-2.649568,1.465737,-2.5
 6854\N,0,-5.493931,0.051965,0.535939\N,0,-4.89254,0.768023,-0.033782\O
 ,0,-2.750172,-2.003473,0.260655\\Version=ES64L-G16RevC.02\HF=-5186.824
 6957\S2=10.869697\S2-1=0.\S2A=20.434084\RMSD=2.781e-09\Dipole=1.416258
 4,0.853824,-0.1321635\Quadrupole=-4.8148974,-1.9686801,6.7835775,-4.53
 53995,1.8057003,0.0462925\PG=C01 [X(C6H6Fe3N2O14)]\\@
 The archive entry for this job was punched.


 GARLIC THEN HAVE POWER TO SAVE FROM DEATH
 BEAR WITH IT THOUGH IT MAKETH UNSAVORY BREATH,
 AND SCORN NOT GARLIC LIKE SOME THAT THINK
 IT ONLY MAKETH MEN WINK AND DRINK AND STINK.
   --  SIR JOHN HARRINGTON,
       "THE ENGLISHMAN'S DOCTOR", 1609
 Job cpu time:       0 days  2 hours 27 minutes 54.9 seconds.
 Elapsed time:       0 days  1 hours 16 minutes  5.8 seconds.
 File lengths (MBytes):  RWF=    680 Int=      0 D2E=      0 Chk=    210 Scr=      1
 Normal termination of Gaussian 16 at Thu Mar 30 21:47:53 2023.
