 Entering Gaussian System, Link 0=g16
 Input=FeFeFe-TS1-0xH2O-opt.gjf
 Output=FeFeFe-TS1-0xH2O-opt.log
 AtFile(1): /zfs/curium/svicchi/00-MOF/01-Gaussian/zw-basis-set/def2-TZVP/H.gbs
            !----------------------------------------------------------------------
            ! Basis Set Exchange
            ! Version v0.9
            ! https://www.basissetexchange.org
            !----------------------------------------------------------------------
            !   Basis set: def2-TZVP
            ! Description: def2-TZVP
            !        Role: orbital
            !     Version: 1  (Data from Turbomole 7.3)
            !----------------------------------------------------------------------
            H     0
            S    3   1.00
                 34.0613410              0.60251978D-02
                  5.1235746              0.45021094D-01
                  1.1646626              0.20189726
            S    1   1.00
                  0.32723041             1.0000000
            S    1   1.00
                  0.10307241             1.0000000
            P    1   1.00
                  0.8000000              1.0000000
 AtFile(1): /zfs/curium/svicchi/00-MOF/01-Gaussian/zw-basis-set/def2-TZVP/O.gbs
            !----------------------------------------------------------------------
            ! Basis Set Exchange
            ! Version v0.9
            ! https://www.basissetexchange.org
            !----------------------------------------------------------------------
            !   Basis set: def2-TZVP
            ! Description: def2-TZVP
            !        Role: orbital
            !     Version: 1  (Data from Turbomole 7.3)
            !----------------------------------------------------------------------
            O     0
            S    6   1.00
              27032.3826310              0.21726302465D-03
               4052.3871392              0.16838662199D-02
                922.32722710             0.87395616265D-02
                261.24070989             0.35239968808D-01
                 85.354641351            0.11153519115
                 31.035035245            0.25588953961
            S    2   1.00
                 12.260860728            0.39768730901
                  4.9987076005           0.24627849430
            S    1   1.00
                  1.1703108158           1.0000000
            S    1   1.00
                  0.46474740994          1.0000000
            S    1   1.00
                  0.18504536357          1.0000000
            P    4   1.00
                 63.274954801            0.60685103418D-02
                 14.627049379            0.41912575824D-01
                  4.4501223456           0.16153841088
                  1.5275799647           0.35706951311
            P    1   1.00
                  0.52935117943           .44794207502
            P    1   1.00
                  0.17478421270           .24446069663
            D    1   1.00
                  2.31400000             1.0000000
            D    1   1.00
                  0.64500000             1.0000000
            F    1   1.00
                  1.42800000             1.0000000
 AtFile(1): /zfs/curium/svicchi/00-MOF/01-Gaussian/zw-basis-set/def2-TZVP/C.gbs
            !----------------------------------------------------------------------
            ! Basis Set Exchange
            ! Version v0.9
            ! https://www.basissetexchange.org
            !----------------------------------------------------------------------
            !   Basis set: def2-TZVP
            ! Description: def2-TZVP
            !        Role: orbital
            !     Version: 1  (Data from Turbomole 7.3)
            !----------------------------------------------------------------------
            C     0
            S    6   1.00
              13575.3496820              0.22245814352D-03
               2035.2333680              0.17232738252D-02
                463.22562359             0.89255715314D-02
                131.20019598             0.35727984502D-01
                 42.853015891            0.11076259931
                 15.584185766            0.24295627626
            S    2   1.00
                  6.2067138508           0.41440263448
                  2.5764896527           0.23744968655
            S    1   1.00
                  0.57696339419          1.0000000
            S    1   1.00
                  0.22972831358          1.0000000
            S    1   1.00
                  0.95164440028D-01      1.0000000
            P    4   1.00
                 34.697232244            0.53333657805D-02
                  7.9582622826           0.35864109092D-01
                  2.3780826883           0.14215873329
                  0.81433208183          0.34270471845
            P    1   1.00
                  0.28887547253           .46445822433
            P    1   1.00
                  0.10056823671           .24955789874
            D    1   1.00
                  1.09700000             1.0000000
            D    1   1.00
                  0.31800000             1.0000000
            F    1   1.00
                  0.76100000             1.0000000
 AtFile(1): /zfs/curium/svicchi/00-MOF/01-Gaussian/zw-basis-set/def2-TZVP/Fe.gbs
            !----------------------------------------------------------------------
            ! Basis Set Exchange
            ! Version v0.9
            ! https://www.basissetexchange.org
            !----------------------------------------------------------------------
            !   Basis set: def2-TZVP
            ! Description: def2-TZVP
            !        Role: orbital
            !     Version: 1  (Data from Turbomole 7.3)
            !----------------------------------------------------------------------
            Fe     0
            S    8   1.00
             300784.8463700              0.22806273096D-03
              45088.9705570              0.17681788761D-02
              10262.5163170              0.91927083490D-02
               2905.2897293              0.37355495807D-01
                946.11487137             0.12151108426
                339.87832894             0.28818881468
                131.94425588             0.41126612677
                 52.111494077            0.21518583573
            S    4   1.00
                329.48839267            -0.24745216477D-01
                101.92332739            -0.11683089050
                 16.240462745            0.55293621136
                  6.8840675801           0.53601640182
            S    2   1.00
                 10.470693782           -0.22912708577
                  1.7360039648           0.71159319984
            S    1   1.00
                  0.72577288979          1.0000000
            S    1   1.00
                  0.11595528203          1.0000000
            S    1   1.00
                  0.41968227746D-01      1.0000000
            P    6   1.00
               1585.3959970              0.23793960179D-02
                375.38006499             0.19253154755D-01
                120.31816501             0.90021836536D-01
                 44.788749031            0.25798172356
                 17.829278584            0.41492649744
                  7.2247153786           0.24207474784
            P    3   1.00
                 28.143219756           -0.29041755152D-01
                  3.8743241412           0.55312260343
                  1.5410752281           0.96771136842
            P    1   1.00
                  0.58285615250          1.0000000
            P    1   1.00
                  0.1349150              1.0000000
            D    4   1.00
                 61.996675034            0.11971972255D-01
                 17.873732552            0.73210135410D-01
                  6.2744782934           0.23103094314
                  2.3552337175           0.39910706494
            D    1   1.00
                  0.85432239901           .41391589765
            D    1   1.00
                  0.27869254413           .21909269782
            D    1   1.00
                  0.0910000              1.0000000
            F    1   1.00
                  1.5980000              1.0000000
 AtFile(1): /zfs/curium/svicchi/00-MOF/01-Gaussian/zw-basis-set/def2-TZVP/N.gbs
            !----------------------------------------------------------------------
            ! Basis Set Exchange
            ! Version v0.9
            ! https://www.basissetexchange.org
            !----------------------------------------------------------------------
            !   Basis set: def2-TZVP
            ! Description: def2-TZVP
            !        Role: orbital
            !     Version: 1  (Data from Turbomole 7.3)
            !----------------------------------------------------------------------
            N     0
            S    6   1.00
              19730.8006470              0.21887984991D-03
               2957.8958745              0.16960708803D-02
                673.22133595             0.87954603538D-02
                190.68249494             0.35359382605D-01
                 62.295441898            0.11095789217
                 22.654161182            0.24982972552
            S    2   1.00
                  8.9791477428           0.40623896148
                  3.6863002370           0.24338217176
            S    1   1.00
                  0.84660076805          1.0000000
            S    1   1.00
                  0.33647133771          1.0000000
            S    1   1.00
                  0.13647653675          1.0000000
            P    4   1.00
                 49.200380510            0.55552416751D-02
                 11.346790537            0.38052379723D-01
                  3.4273972411           0.14953671029
                  1.1785525134           0.34949305230
            P    1   1.00
                  0.41642204972           .45843153697
            P    1   1.00
                  0.14260826011           .24428771672
            D    1   1.00
                  1.65400000             1.0000000
            D    1   1.00
                  0.46900000             1.0000000
            F    1   1.00
                  1.09300000             1.0000000
 Initial command:
 /software/commercial/gaussian/g16/AVX2/g16/l1.exe "/scratch1/svicchi/G09-103703.pbs02/Gau-4021961.inp" -scrdir="/scratch1/svicchi/G09-103703.pbs02/"
 Entering Link 1 = /software/commercial/gaussian/g16/AVX2/g16/l1.exe PID=   4021962.
  
 Copyright (c) 1988-2021, Gaussian, Inc.  All Rights Reserved.
  
 This is part of the Gaussian(R) 16 program.  It is based on
 the Gaussian(R) 09 system (copyright 2009, Gaussian, Inc.),
 the Gaussian(R) 03 system (copyright 2003, Gaussian, Inc.),
 the Gaussian(R) 98 system (copyright 1998, Gaussian, Inc.),
 the Gaussian(R) 94 system (copyright 1995, Gaussian, Inc.),
 the Gaussian 92(TM) system (copyright 1992, Gaussian, Inc.),
 the Gaussian 90(TM) system (copyright 1990, Gaussian, Inc.),
 the Gaussian 88(TM) system (copyright 1988, Gaussian, Inc.),
 the Gaussian 86(TM) system (copyright 1986, Carnegie Mellon
 University), and the Gaussian 82(TM) system (copyright 1983,
 Carnegie Mellon University). Gaussian is a federally registered
 trademark of Gaussian, Inc.
  
 This software contains proprietary and confidential information,
 including trade secrets, belonging to Gaussian, Inc.
  
 This software is provided under written license and may be
 used, copied, transmitted, or stored only in accord with that
 written license.
  
 The following legend is applicable only to US Government
 contracts under FAR:
  
                    RESTRICTED RIGHTS LEGEND
  
 Use, reproduction and disclosure by the US Government is
 subject to restrictions as set forth in subparagraphs (a)
 and (c) of the Commercial Computer Software - Restricted
 Rights clause in FAR 52.227-19.
  
 Gaussian, Inc.
 340 Quinnipiac St., Bldg. 40, Wallingford CT 06492
  
  
 ---------------------------------------------------------------
 Warning -- This program may not be used in any manner that
 competes with the business of Gaussian, Inc. or will provide
 assistance to any competitor of Gaussian, Inc.  The licensee
 of this program is prohibited from giving any competitor of
 Gaussian, Inc. access to this program.  By using this program,
 the user acknowledges that Gaussian, Inc. is engaged in the
 business of creating and licensing software in the field of
 computational chemistry and represents and warrants to the
 licensee that it is not a competitor of Gaussian, Inc. and that
 it will not use this program in any manner prohibited above.
 ---------------------------------------------------------------
  

 Cite this work as:
 Gaussian 16, Revision C.02,
 M. J. Frisch, G. W. Trucks, H. B. Schlegel, G. E. Scuseria, 
 M. A. Robb, J. R. Cheeseman, G. Scalmani, V. Barone, 
 G. A. Petersson, H. Nakatsuji, X. Li, M. Caricato, A. V. Marenich, 
 J. Bloino, B. G. Janesko, R. Gomperts, B. Mennucci, H. P. Hratchian, 
 J. V. Ortiz, A. F. Izmaylov, J. L. Sonnenberg, D. Williams-Young, 
 F. Ding, F. Lipparini, F. Egidi, J. Goings, B. Peng, A. Petrone, 
 T. Henderson, D. Ranasinghe, V. G. Zakrzewski, J. Gao, N. Rega, 
 G. Zheng, W. Liang, M. Hada, M. Ehara, K. Toyota, R. Fukuda, 
 J. Hasegawa, M. Ishida, T. Nakajima, Y. Honda, O. Kitao, H. Nakai, 
 T. Vreven, K. Throssell, J. A. Montgomery, Jr., J. E. Peralta, 
 F. Ogliaro, M. J. Bearpark, J. J. Heyd, E. N. Brothers, K. N. Kudin, 
 V. N. Staroverov, T. A. Keith, R. Kobayashi, J. Normand, 
 K. Raghavachari, A. P. Rendell, J. C. Burant, S. S. Iyengar, 
 J. Tomasi, M. Cossi, J. M. Millam, M. Klene, C. Adamo, R. Cammi, 
 J. W. Ochterski, R. L. Martin, K. Morokuma, O. Farkas, 
 J. B. Foresman, and D. J. Fox, Gaussian, Inc., Wallingford CT, 2019.
 
 ******************************************
 Gaussian 16:  ES64L-G16RevC.02  7-Dec-2021
                 6-Feb-2023 
 ******************************************
 %NProcShared=2
 Will use up to    2 processors via shared memory.
 %mem=110gb
 %chk=/scratch1/svicchi/G09-103703.pbs02/00-opt/FeFeFe-TS1-0xH2O-opt.chk
 ----------------------------------------------------------------------
 #p opt=(TS,CalcAll,cartesian,maxcycle=500) gen um06l int=grid=ultrafin
 e scf=(xqc,intrep,maxconventionalcycle=150) pop=(hirshfeld) nosymm
 ----------------------------------------------------------------------
 1/5=1,6=500,10=4,18=10,26=4,38=1/1,3;
 2/12=2,15=1,17=6,18=5,29=2,40=1/2;
 3/5=7,11=2,25=1,30=1,71=2,74=-53,75=-5,116=2,140=1/1,2,3;
 4//1;
 5/5=2,8=3,13=1,17=20,38=5,85=150/2,8;
 8/6=4,10=90,11=11/1;
 11/6=1,8=1,9=11,15=111,16=1,31=1/1,2,10;
 10/6=1,31=1/2;
 6/7=2,8=2,9=2,10=2,18=1,28=1,79=1/1;
 7/7=1,10=1,25=1,30=1/1,2,3,16;
 1/5=1,6=500,10=4,18=10,26=4/3(3);
 2/15=1,29=1/2;
 7/7=1,8=1,9=1,25=1,30=1,44=-1/16;
 99/12=1/99;
 2/15=1,29=1/2;
 3/5=7,6=1,11=2,25=1,30=1,71=2,74=-53,75=-5,82=7,116=2,140=1/1,2,3;
 4/5=5,16=3,69=1/1;
 5/5=2,8=3,13=1,17=20,38=5,85=150/2,8;
 8/6=4,10=90,11=11/1;
 11/6=1,8=1,9=11,15=111,16=1,31=1/1,2,10;
 10/6=1,31=1/2;
 7/7=1,10=1,25=1,30=1/1,2,3,16;
 1/5=1,6=500,10=4,18=10,26=4/3(-8);
 2/15=1,29=1/2;
 6/7=2,8=2,9=2,10=2,18=1,19=2,28=1,79=1/1;
 7/7=1,8=1,9=1,25=1,30=1,44=-1/16;
 99/12=1/99;
 Leave Link    1 at Mon Feb  6 16:35:09 2023, MaxMem= 14763950080 cpu:               0.0 elap:               0.5
 (Enter /software/commercial/gaussian/g16/AVX2/g16/l101.exe)
 ----------------
 FeFeFe-TS1-0xH2O
 ----------------
 Symbolic Z-matrix:
 Charge =  0 Multiplicity =15
 O                    -0.80125   2.54973  -1.32537 
 O                     1.25998   1.6874   -1.62578 
 C                     0.31444   2.44177  -1.90818 
 H                     0.45356   3.10852  -2.77615 
 O                    -2.39276  -1.70152   1.46326 
 O                    -2.92492   0.48535   1.36358 
 C                    -3.03503  -0.67885   1.80804 
 H                    -3.78478  -0.82874   2.60233 
 O                     1.818    -1.21599  -1.3494 
 O                    -2.95286   0.7686   -1.38796 
 O                    -2.58158  -1.45094  -1.28474 
 C                    -3.15522  -0.42654  -1.71646 
 H                    -3.93216  -0.5887   -2.48167 
 O                     1.21573   1.96678   1.29548 
 O                    -0.96667   2.50592   1.49253 
 C                     0.25935   2.57659   1.79963 
 H                     0.48966   3.27364   2.62305 
 Fe                    1.65816   0.42692  -0.03553 
 O                     1.84447  -0.9139    1.55641 
 Fe                   -1.00621  -1.73955  -0.00486 
 O                     0.27287  -2.51086   1.30544 
 O                     0.00334  -2.54927  -1.49896 
 Fe                   -1.63974   1.36223   0.02724 
 O                    -0.37707   0.00153  -0.00637 
 C                     1.28869  -1.9864    1.84405 
 H                     1.72581  -2.56839   2.6737 
 C                     1.16042  -2.15219  -1.82906 
 H                     1.6258   -2.72499  -2.64939 
 N                     4.59328  -0.20593   0.16768 
 N                     5.71347  -0.12038   0.19918 
 O                     3.46794   0.79791  -0.06889 
 
 ITRead=  0  0  0  0  0  0  0  0  0  0  0  0  0  0  0  0  0  0  0  0
 ITRead=  0  0  0  0  0  0  0  0  0  0  0
 MicOpt= -1 -1 -1 -1 -1 -1 -1 -1 -1 -1 -1 -1 -1 -1 -1 -1 -1 -1 -1 -1
 MicOpt= -1 -1 -1 -1 -1 -1 -1 -1 -1 -1 -1
 NAtoms=     31 NQM=       31 NQMF=       0 NMMI=      0 NMMIF=      0
                NMic=       0 NMicF=      0.
                    Isotopes and Nuclear Properties:
 (Nuclear quadrupole moments (NQMom) in fm**2, nuclear magnetic moments (NMagM)
  in nuclear magnetons)

  Atom         1           2           3           4           5           6           7           8           9          10
 IAtWgt=          16          16          12           1          16          16          12           1          16          16
 AtmWgt=  15.9949146  15.9949146  12.0000000   1.0078250  15.9949146  15.9949146  12.0000000   1.0078250  15.9949146  15.9949146
 NucSpn=           0           0           0           1           0           0           0           1           0           0
 AtZEff=  -0.0000000  -0.0000000  -0.0000000  -0.0000000  -0.0000000  -0.0000000  -0.0000000  -0.0000000  -0.0000000  -0.0000000
 NQMom=    0.0000000   0.0000000   0.0000000   0.0000000   0.0000000   0.0000000   0.0000000   0.0000000   0.0000000   0.0000000
 NMagM=    0.0000000   0.0000000   0.0000000   2.7928460   0.0000000   0.0000000   0.0000000   2.7928460   0.0000000   0.0000000
 AtZNuc=   8.0000000   8.0000000   6.0000000   1.0000000   8.0000000   8.0000000   6.0000000   1.0000000   8.0000000   8.0000000

  Atom        11          12          13          14          15          16          17          18          19          20
 IAtWgt=          16          12           1          16          16          12           1          56          16          56
 AtmWgt=  15.9949146  12.0000000   1.0078250  15.9949146  15.9949146  12.0000000   1.0078250  55.9349393  15.9949146  55.9349393
 NucSpn=           0           0           1           0           0           0           1           0           0           0
 AtZEff=  -0.0000000  -0.0000000  -0.0000000  -0.0000000  -0.0000000  -0.0000000  -0.0000000  -0.0000000  -0.0000000  -0.0000000
 NQMom=    0.0000000   0.0000000   0.0000000   0.0000000   0.0000000   0.0000000   0.0000000   0.0000000   0.0000000   0.0000000
 NMagM=    0.0000000   0.0000000   2.7928460   0.0000000   0.0000000   0.0000000   2.7928460   0.0000000   0.0000000   0.0000000
 AtZNuc=   8.0000000   6.0000000   1.0000000   8.0000000   8.0000000   6.0000000   1.0000000  26.0000000   8.0000000  26.0000000

  Atom        21          22          23          24          25          26          27          28          29          30
 IAtWgt=          16          16          56          16          12           1          12           1          14          14
 AtmWgt=  15.9949146  15.9949146  55.9349393  15.9949146  12.0000000   1.0078250  12.0000000   1.0078250  14.0030740  14.0030740
 NucSpn=           0           0           0           0           0           1           0           1           2           2
 AtZEff=  -0.0000000  -0.0000000  -0.0000000  -0.0000000  -0.0000000  -0.0000000  -0.0000000  -0.0000000  -0.0000000  -0.0000000
 NQMom=    0.0000000   0.0000000   0.0000000   0.0000000   0.0000000   0.0000000   0.0000000   0.0000000   2.0440000   2.0440000
 NMagM=    0.0000000   0.0000000   0.0000000   0.0000000   0.0000000   2.7928460   0.0000000   2.7928460   0.4037610   0.4037610
 AtZNuc=   8.0000000   8.0000000  26.0000000   8.0000000   6.0000000   1.0000000   6.0000000   1.0000000   7.0000000   7.0000000

  Atom        31
 IAtWgt=          16
 AtmWgt=  15.9949146
 NucSpn=           0
 AtZEff=  -0.0000000
 NQMom=    0.0000000
 NMagM=    0.0000000
 AtZNuc=   8.0000000
 Leave Link  101 at Mon Feb  6 16:35:11 2023, MaxMem= 14763950080 cpu:               0.2 elap:               0.6
 (Enter /software/commercial/gaussian/g16/AVX2/g16/l103.exe)

 GradGradGradGradGradGradGradGradGradGradGradGradGradGradGradGradGradGrad
 Berny optimization.
 Initialization pass.
 No Z-matrix variables, so optimization will use Cartesian coordinates.
 Trust Radius=3.00D-01 FncErr=1.00D-07 GrdErr=1.00D-06 EigMax=2.50D+02 EigMin=1.00D-04
 Number of steps in this run=    186 maximum allowed number of steps=    186.
 Search for a saddle point of order  1.
 GradGradGradGradGradGradGradGradGradGradGradGradGradGradGradGradGradGrad

 Leave Link  103 at Mon Feb  6 16:35:13 2023, MaxMem= 14763950080 cpu:               0.1 elap:               1.0
 (Enter /software/commercial/gaussian/g16/AVX2/g16/l202.exe)
 ---------------------------------------------------------------------------------------------------
                            Z-MATRIX (ANGSTROMS AND DEGREES)
   CD    Cent   Atom    N1       Length/X        N2       Alpha/Y        N3        Beta/Z          J
 ---------------------------------------------------------------------------------------------------
      1      1  O        0  -0.801253          2.549731         -1.325370
      2      2  O        0   1.259982          1.687404         -1.625781
      3      3  C        0   0.314438          2.441774         -1.908175
      4      4  H        0   0.453556          3.108523         -2.776149
      5      5  O        0  -2.392758         -1.701524          1.463257
      6      6  O        0  -2.924921          0.485352          1.363575
      7      7  C        0  -3.035025         -0.678850          1.808036
      8      8  H        0  -3.784783         -0.828738          2.602328
      9      9  O        0   1.817998         -1.215989         -1.349403
     10     10  O        0  -2.952855          0.768600         -1.387963
     11     11  O        0  -2.581584         -1.450940         -1.284736
     12     12  C        0  -3.155220         -0.426543         -1.716457
     13     13  H        0  -3.932163         -0.588700         -2.481673
     14     14  O        0   1.215727          1.966778          1.295479
     15     15  O        0  -0.966674          2.505918          1.492533
     16     16  C        0   0.259352          2.576594          1.799629
     17     17  H        0   0.489658          3.273638          2.623047
     18     18  Fe       0   1.658160          0.426921         -0.035531
     19     19  O        0   1.844466         -0.913901          1.556411
     20     20  Fe       0  -1.006207         -1.739548         -0.004856
     21     21  O        0   0.272868         -2.510862          1.305438
     22     22  O        0   0.003344         -2.549268         -1.498963
     23     23  Fe       0  -1.639742          1.362234          0.027235
     24     24  O        0  -0.377067          0.001525         -0.006371
     25     25  C        0   1.288692         -1.986401          1.844047
     26     26  H        0   1.725809         -2.568385          2.673696
     27     27  C        0   1.160420         -2.152194         -1.829055
     28     28  H        0   1.625796         -2.724990         -2.649389
     29     29  N        0   4.593275         -0.205925          0.167680
     30     30  N        0   5.713474         -0.120375          0.199181
     31     31  O        0   3.467941          0.797914         -0.068885
 ---------------------------------------------------------------------------------------------------
                         Z-Matrix orientation:                         
 ---------------------------------------------------------------------
 Center     Atomic      Atomic             Coordinates (Angstroms)
 Number     Number       Type             X           Y           Z
 ---------------------------------------------------------------------
      1          8           0       -0.801253    2.549731   -1.325370
      2          8           0        1.259982    1.687404   -1.625781
      3          6           0        0.314438    2.441774   -1.908175
      4          1           0        0.453556    3.108523   -2.776149
      5          8           0       -2.392758   -1.701524    1.463257
      6          8           0       -2.924921    0.485352    1.363575
      7          6           0       -3.035025   -0.678850    1.808036
      8          1           0       -3.784783   -0.828738    2.602328
      9          8           0        1.817998   -1.215989   -1.349403
     10          8           0       -2.952855    0.768600   -1.387963
     11          8           0       -2.581584   -1.450940   -1.284736
     12          6           0       -3.155220   -0.426543   -1.716457
     13          1           0       -3.932163   -0.588700   -2.481673
     14          8           0        1.215727    1.966778    1.295479
     15          8           0       -0.966674    2.505918    1.492533
     16          6           0        0.259352    2.576594    1.799629
     17          1           0        0.489658    3.273638    2.623047
     18         26           0        1.658160    0.426921   -0.035531
     19          8           0        1.844466   -0.913901    1.556411
     20         26           0       -1.006207   -1.739548   -0.004856
     21          8           0        0.272868   -2.510862    1.305438
     22          8           0        0.003344   -2.549268   -1.498963
     23         26           0       -1.639742    1.362234    0.027235
     24          8           0       -0.377067    0.001525   -0.006371
     25          6           0        1.288692   -1.986401    1.844047
     26          1           0        1.725809   -2.568385    2.673696
     27          6           0        1.160420   -2.152194   -1.829055
     28          1           0        1.625796   -2.724990   -2.649389
     29          7           0        4.593275   -0.205925    0.167680
     30          7           0        5.713474   -0.120375    0.199181
     31          8           0        3.467941    0.797914   -0.068885
 ---------------------------------------------------------------------
                    Distance matrix (angstroms):
                    1          2          3          4          5
     1  O    0.000000
     2  O    2.254450   0.000000
     3  C    1.263362   1.242125   0.000000
     4  H    1.997887   1.998311   1.103307   0.000000
     5  O    5.327523   5.862550   5.988521   7.015028   0.000000
     6  O    4.000256   5.281533   5.002538   5.952516   2.252900
     7  C    5.023117   5.986430   5.896390   6.894138   1.255883
     8  H    5.978488   7.046810   6.916972   7.898959   1.999243
     9  O    4.587123   2.969420   3.994014   4.753810   5.086970
    10  O    2.793875   4.318420   3.707470   4.359580   3.813748
    11  O    4.379109   4.972237   4.891712   5.676715   2.765848
    12  C    3.814750   4.896019   4.505832   5.161676   3.509630
    13  H    4.581417   5.733373   5.248456   5.743754   4.378426
    14  O    3.358108   2.934922   3.361747   4.296818   5.148374
    15  O    2.823094   3.918143   3.634581   4.538924   4.442650
    16  C    3.300185   3.677683   3.710663   4.610684   5.044713
    17  H    4.216692   4.600226   4.610279   5.401841   5.865635
    18  Fe   3.495528   2.067912   3.061375   4.019085   4.815245
    19  O    5.225059   4.151476   5.060128   6.073352   4.310811
    20  Fe   4.492625   4.416674   4.780186   5.771894   2.019734
    21  O    5.803834   5.214583   5.904036   6.947625   2.790250
    22  O    5.165007   4.420929   5.017443   5.817602   3.903168
    23  Fe   1.985637   3.353595   2.954664   3.910292   3.466382
    24  O    2.900525   2.853876   3.170150   4.244413   3.020462
    25  C    5.915198   5.053452   5.885327   6.928341   3.712039
    26  H    6.969482   6.067474   6.934494   7.971620   4.379407
    27  C    5.119566   3.846264   4.671883   5.391826   4.864925
    28  H    5.955357   4.544317   5.381868   5.951478   5.840387
    29  N    6.238892   4.232262   5.443154   6.065391   7.260853
    30  N    7.203845   5.141220   6.336809   6.851650   8.355173
    31  O    4.782639   2.844328   4.003729   4.664194   6.553048
                    6          7          8          9         10
     6  O    0.000000
     7  C    1.251013   0.000000
     8  H    2.000176   1.102499   0.000000
     9  O    5.722770   5.814617   6.867117   0.000000
    10  O    2.766220   3.509455   4.377901   5.167313   0.000000
    11  O    3.298584   3.219778   4.116320   4.406326   2.252744
    12  C    3.220433   3.535556   4.382923   5.048846   1.255877
    13  H    4.117530   4.383445   5.091798   5.894054   1.999377
    14  O    4.398207   5.032987   5.876042   4.181882   5.100350
    15  O    2.816744   3.810560   4.504810   5.448265   3.906462
    16  C    3.834453   4.631512   5.347489   5.170055   4.873177
    17  H    4.584775   5.358152   5.924590   6.140163   5.849300
    18  Fe   4.792238   5.162117   6.177427   2.109730   4.817393
    19  O    4.974148   4.891625   5.726224   2.921594   5.874899
    20  Fe   3.241026   2.920233   3.917584   3.171444   3.463124
    21  O    4.382526   3.814581   4.579956   3.333512   5.330532
    22  O    5.096840   4.864812   5.842150   2.256761   4.445186
    23  Fe   2.050954   3.046981   4.004081   4.527508   2.019765
    24  O    2.932985   3.289335   4.371176   2.846820   3.021901
    25  C    4.908661   4.517246   5.258833   3.327435   6.002220
    26  H    5.715857   5.194733   5.779108   4.245327   7.037218
    27  C    5.817177   5.744644   6.770799   1.240546   5.064053
    28  H    6.864343   6.765987   7.775003   2.000997   5.895796
    29  N    7.644037   7.816993   8.746843   3.320231   7.766196
    30  N    8.737539   8.912718   9.823125   4.332807   8.855200
    31  O    6.558835   6.927643   7.898315   2.901352   6.554956
                   11         12         13         14         15
    11  O    0.000000
    12  C    1.250932   0.000000
    13  H    2.000045   1.102493   0.000000
    14  O    5.723450   5.822793   6.877363   0.000000
    15  O    5.096850   4.866896   5.845092   2.256629   0.000000
    16  C    5.814229   5.748130   6.776240   1.241248   1.265876
    17  H    6.857473   6.768144   7.779995   1.999374   1.997088
    18  Fe   4.802323   5.169385   6.186017   2.082905   3.680620
    19  O    5.286818   5.995502   7.055588   2.960019   4.427386
    20  Fe   2.050171   3.044966   4.002536   4.512728   4.501968
    21  O    3.997541   5.022750   5.976554   4.575843   5.171030
    22  O    2.816748   3.811796   4.505304   5.447334   5.953561
    23  Fe   3.243807   2.921790   3.918668   3.182392   1.976900
    24  O    2.933218   3.290254   4.371978   2.845000   2.977639
    25  C    5.005501   5.904126   6.922626   3.991726   5.038965
    26  H    5.955796   6.905460   7.906303   4.767323   5.864568
    27  C    3.845859   4.649226   5.367013   5.170271   6.103727
    28  H    4.602991   5.386217   5.956742   6.143519   7.158129
    29  N    7.425508   7.977332   8.935809   4.171379   6.326323
    30  N    8.531143   9.078389  10.022206   5.078169   7.293460
    31  O    6.567525   6.933978   7.906060   2.881007   5.002111
                   16         17         18         19         20
    16  C    0.000000
    17  H    1.103145   0.000000
    18  Fe   3.153660   4.066600   0.000000
    19  O    3.841262   4.528653   2.089687   0.000000
    20  Fe   4.846327   5.854530   3.434149   3.353444   0.000000
    21  O    5.111420   5.936626   3.513944   2.254594   1.986914
    22  O    6.100878   7.150783   3.706447   3.924215   1.976663
    23  Fe   2.867509   3.863425   3.428543   4.433833   3.165983
    24  O    3.208994   4.286231   2.079414   2.866270   1.851258
    25  C    4.677867   5.377110   3.081143   1.241723   2.957354
    26  H    5.420821   5.971588   4.039350   1.999931   3.914783
    27  C    6.028325   7.050588   3.180614   3.669151   2.862211
    28  H    7.054624   8.066779   4.094856   4.584388   3.859027
    29  N    5.402644   5.914039   3.009433   3.160024   5.808267
    30  N    6.291464   6.684512   4.098804   4.176240   6.915017
    31  O    4.117049   4.716553   1.847716   2.864885   5.144008
                   21         22         23         24         25
    21  O    0.000000
    22  O    2.817585   0.000000
    23  Fe   4.504748   4.508754   0.000000
    24  O    2.907808   2.979780   1.856612   0.000000
    25  C    1.263747   3.625556   4.805194   3.186008   0.000000
    26  H    1.996616   4.514237   5.812096   4.267234   1.103673
    27  C    3.277413   1.267065   4.861885   3.213184   3.679079
    28  H    4.185322   1.996674   5.876517   4.293121   4.566193
    29  N    5.027240   5.416311   6.428791   4.977713   4.111030
    30  N    6.044702   6.433413   7.503165   6.095228   5.076055
    31  O    4.800547   5.025155   5.139662   3.927115   4.020055
                   26         27         28         29         30
    26  H    0.000000
    27  C    4.557153   0.000000
    28  H    5.326327   1.103457   0.000000
    29  N    4.481484   4.422602   4.804945   0.000000
    30  N    5.293151   5.382595   5.622053   1.123903   0.000000
    31  O    4.678541   4.138356   4.739552   1.526444   2.440806
                   31
    31  O    0.000000
 Symmetry turned off by external request.
 Stoichiometry    C6H6Fe3N2O14(15)
 Framework group  C1[X(C6H6Fe3N2O14)]
 Deg. of freedom    87
 Full point group                 C1      NOp   1
 Rotational constants (GHZ):           0.2653961           0.1721151           0.1440544
 Leave Link  202 at Mon Feb  6 16:35:14 2023, MaxMem= 14763950080 cpu:               0.1 elap:               0.5
 (Enter /software/commercial/gaussian/g16/AVX2/g16/l301.exe)
 General basis read from cards:  (5D, 7F)
 Centers:       4      8     13     17     26     28
 S 3 1.00
     Exponent=  3.4061341000D+01 Coefficients=  6.0251978000D-03
     Exponent=  5.1235746000D+00 Coefficients=  4.5021094000D-02
     Exponent=  1.1646626000D+00 Coefficients=  2.0189726000D-01
 S 1 1.00
     Exponent=  3.2723041000D-01 Coefficients=  1.0000000000D+00
 S 1 1.00
     Exponent=  1.0307241000D-01 Coefficients=  1.0000000000D+00
 P 1 1.00
     Exponent=  8.0000000000D-01 Coefficients=  1.0000000000D+00
 ****
 Centers:       1      2      5      6      9     10     11     14     15     19
 Centers:      21     22     24     31
 S 6 1.00
     Exponent=  2.7032382631D+04 Coefficients=  2.1726302465D-04
     Exponent=  4.0523871392D+03 Coefficients=  1.6838662199D-03
     Exponent=  9.2232722710D+02 Coefficients=  8.7395616265D-03
     Exponent=  2.6124070989D+02 Coefficients=  3.5239968808D-02
     Exponent=  8.5354641351D+01 Coefficients=  1.1153519115D-01
     Exponent=  3.1035035245D+01 Coefficients=  2.5588953961D-01
 S 2 1.00
     Exponent=  1.2260860728D+01 Coefficients=  3.9768730901D-01
     Exponent=  4.9987076005D+00 Coefficients=  2.4627849430D-01
 S 1 1.00
     Exponent=  1.1703108158D+00 Coefficients=  1.0000000000D+00
 S 1 1.00
     Exponent=  4.6474740994D-01 Coefficients=  1.0000000000D+00
 S 1 1.00
     Exponent=  1.8504536357D-01 Coefficients=  1.0000000000D+00
 P 4 1.00
     Exponent=  6.3274954801D+01 Coefficients=  6.0685103418D-03
     Exponent=  1.4627049379D+01 Coefficients=  4.1912575824D-02
     Exponent=  4.4501223456D+00 Coefficients=  1.6153841088D-01
     Exponent=  1.5275799647D+00 Coefficients=  3.5706951311D-01
 P 1 1.00
     Exponent=  5.2935117943D-01 Coefficients=  4.4794207502D-01
 P 1 1.00
     Exponent=  1.7478421270D-01 Coefficients=  2.4446069663D-01
 D 1 1.00
     Exponent=  2.3140000000D+00 Coefficients=  1.0000000000D+00
 D 1 1.00
     Exponent=  6.4500000000D-01 Coefficients=  1.0000000000D+00
 F 1 1.00
     Exponent=  1.4280000000D+00 Coefficients=  1.0000000000D+00
 ****
 Centers:       3      7     12     16     25     27
 S 6 1.00
     Exponent=  1.3575349682D+04 Coefficients=  2.2245814352D-04
     Exponent=  2.0352333680D+03 Coefficients=  1.7232738252D-03
     Exponent=  4.6322562359D+02 Coefficients=  8.9255715314D-03
     Exponent=  1.3120019598D+02 Coefficients=  3.5727984502D-02
     Exponent=  4.2853015891D+01 Coefficients=  1.1076259931D-01
     Exponent=  1.5584185766D+01 Coefficients=  2.4295627626D-01
 S 2 1.00
     Exponent=  6.2067138508D+00 Coefficients=  4.1440263448D-01
     Exponent=  2.5764896527D+00 Coefficients=  2.3744968655D-01
 S 1 1.00
     Exponent=  5.7696339419D-01 Coefficients=  1.0000000000D+00
 S 1 1.00
     Exponent=  2.2972831358D-01 Coefficients=  1.0000000000D+00
 S 1 1.00
     Exponent=  9.5164440028D-02 Coefficients=  1.0000000000D+00
 P 4 1.00
     Exponent=  3.4697232244D+01 Coefficients=  5.3333657805D-03
     Exponent=  7.9582622826D+00 Coefficients=  3.5864109092D-02
     Exponent=  2.3780826883D+00 Coefficients=  1.4215873329D-01
     Exponent=  8.1433208183D-01 Coefficients=  3.4270471845D-01
 P 1 1.00
     Exponent=  2.8887547253D-01 Coefficients=  4.6445822433D-01
 P 1 1.00
     Exponent=  1.0056823671D-01 Coefficients=  2.4955789874D-01
 D 1 1.00
     Exponent=  1.0970000000D+00 Coefficients=  1.0000000000D+00
 D 1 1.00
     Exponent=  3.1800000000D-01 Coefficients=  1.0000000000D+00
 F 1 1.00
     Exponent=  7.6100000000D-01 Coefficients=  1.0000000000D+00
 ****
 Centers:      18     20     23
 S 8 1.00
     Exponent=  3.0078484637D+05 Coefficients=  2.2806273096D-04
     Exponent=  4.5088970557D+04 Coefficients=  1.7681788761D-03
     Exponent=  1.0262516317D+04 Coefficients=  9.1927083490D-03
     Exponent=  2.9052897293D+03 Coefficients=  3.7355495807D-02
     Exponent=  9.4611487137D+02 Coefficients=  1.2151108426D-01
     Exponent=  3.3987832894D+02 Coefficients=  2.8818881468D-01
     Exponent=  1.3194425588D+02 Coefficients=  4.1126612677D-01
     Exponent=  5.2111494077D+01 Coefficients=  2.1518583573D-01
 S 4 1.00
     Exponent=  3.2948839267D+02 Coefficients= -2.4745216477D-02
     Exponent=  1.0192332739D+02 Coefficients= -1.1683089050D-01
     Exponent=  1.6240462745D+01 Coefficients=  5.5293621136D-01
     Exponent=  6.8840675801D+00 Coefficients=  5.3601640182D-01
 S 2 1.00
     Exponent=  1.0470693782D+01 Coefficients= -2.2912708577D-01
     Exponent=  1.7360039648D+00 Coefficients=  7.1159319984D-01
 S 1 1.00
     Exponent=  7.2577288979D-01 Coefficients=  1.0000000000D+00
 S 1 1.00
     Exponent=  1.1595528203D-01 Coefficients=  1.0000000000D+00
 S 1 1.00
     Exponent=  4.1968227746D-02 Coefficients=  1.0000000000D+00
 P 6 1.00
     Exponent=  1.5853959970D+03 Coefficients=  2.3793960179D-03
     Exponent=  3.7538006499D+02 Coefficients=  1.9253154755D-02
     Exponent=  1.2031816501D+02 Coefficients=  9.0021836536D-02
     Exponent=  4.4788749031D+01 Coefficients=  2.5798172356D-01
     Exponent=  1.7829278584D+01 Coefficients=  4.1492649744D-01
     Exponent=  7.2247153786D+00 Coefficients=  2.4207474784D-01
 P 3 1.00
     Exponent=  2.8143219756D+01 Coefficients= -2.9041755152D-02
     Exponent=  3.8743241412D+00 Coefficients=  5.5312260343D-01
     Exponent=  1.5410752281D+00 Coefficients=  9.6771136842D-01
 P 1 1.00
     Exponent=  5.8285615250D-01 Coefficients=  1.0000000000D+00
 P 1 1.00
     Exponent=  1.3491500000D-01 Coefficients=  1.0000000000D+00
 D 4 1.00
     Exponent=  6.1996675034D+01 Coefficients=  1.1971972255D-02
     Exponent=  1.7873732552D+01 Coefficients=  7.3210135410D-02
     Exponent=  6.2744782934D+00 Coefficients=  2.3103094314D-01
     Exponent=  2.3552337175D+00 Coefficients=  3.9910706494D-01
 D 1 1.00
     Exponent=  8.5432239901D-01 Coefficients=  4.1391589765D-01
 D 1 1.00
     Exponent=  2.7869254413D-01 Coefficients=  2.1909269782D-01
 D 1 1.00
     Exponent=  9.1000000000D-02 Coefficients=  1.0000000000D+00
 F 1 1.00
     Exponent=  1.5980000000D+00 Coefficients=  1.0000000000D+00
 ****
 Centers:      29     30
 S 6 1.00
     Exponent=  1.9730800647D+04 Coefficients=  2.1887984991D-04
     Exponent=  2.9578958745D+03 Coefficients=  1.6960708803D-03
     Exponent=  6.7322133595D+02 Coefficients=  8.7954603538D-03
     Exponent=  1.9068249494D+02 Coefficients=  3.5359382605D-02
     Exponent=  6.2295441898D+01 Coefficients=  1.1095789217D-01
     Exponent=  2.2654161182D+01 Coefficients=  2.4982972552D-01
 S 2 1.00
     Exponent=  8.9791477428D+00 Coefficients=  4.0623896148D-01
     Exponent=  3.6863002370D+00 Coefficients=  2.4338217176D-01
 S 1 1.00
     Exponent=  8.4660076805D-01 Coefficients=  1.0000000000D+00
 S 1 1.00
     Exponent=  3.3647133771D-01 Coefficients=  1.0000000000D+00
 S 1 1.00
     Exponent=  1.3647653675D-01 Coefficients=  1.0000000000D+00
 P 4 1.00
     Exponent=  4.9200380510D+01 Coefficients=  5.5552416751D-03
     Exponent=  1.1346790537D+01 Coefficients=  3.8052379723D-02
     Exponent=  3.4273972411D+00 Coefficients=  1.4953671029D-01
     Exponent=  1.1785525134D+00 Coefficients=  3.4949305230D-01
 P 1 1.00
     Exponent=  4.1642204972D-01 Coefficients=  4.5843153697D-01
 P 1 1.00
     Exponent=  1.4260826011D-01 Coefficients=  2.4428771672D-01
 D 1 1.00
     Exponent=  1.6540000000D+00 Coefficients=  1.0000000000D+00
 D 1 1.00
     Exponent=  4.6900000000D-01 Coefficients=  1.0000000000D+00
 F 1 1.00
     Exponent=  1.0930000000D+00 Coefficients=  1.0000000000D+00
 ****
 Ernie: Thresh=  0.10000D-02 Tol=  0.10000D-05 Strict=F.
   853 basis functions,  1476 primitive gaussians,   984 cartesian basis functions
   130 alpha electrons      116 beta electrons
       nuclear repulsion energy      4434.9472180413 Hartrees.
 IExCor= 4134 DFT=T Ex+Corr=M06L ExCW=0 ScaHFX=  0.000000
 ScaDFX=  1.000000  1.000000  1.000000  1.000000 ScalE2=  1.000000  1.000000
 IRadAn=      5 IRanWt=     -1 IRanGd=            0 ICorTp=0 IEmpDi=  4
 NAtoms=   31 NActive=   31 NUniq=   31 SFac= 1.00D+00 NAtFMM=   60 NAOKFM=F Big=F
 Integral buffers will be    131072 words long.
 Raffenetti 2 integral format.
 Two-electron integral symmetry is turned off.
 Leave Link  301 at Mon Feb  6 16:35:16 2023, MaxMem= 14763950080 cpu:               0.1 elap:               1.1
 (Enter /software/commercial/gaussian/g16/AVX2/g16/l302.exe)
 NPDir=0 NMtPBC=     1 NCelOv=     1 NCel=       1 NClECP=     1 NCelD=      1
         NCelK=      1 NCelE2=     1 NClLst=     1 CellRange=     0.0.
 One-electron integrals computed using PRISM.
 NBasis=   853 RedAO= T EigKep=  2.20D-04  NBF=   853
 NBsUse=   853 1.00D-06 EigRej= -1.00D+00 NBFU=   853
 Precomputing XC quadrature grid using
 IXCGrd= 4 IRadAn=           5 IRanWt=          -1 IRanGd=           0 AccXCQ= 0.00D+00.
 Generated NRdTot=       0 NPtTot=           0 NUsed=           0 NTot=          32
 NSgBfM=   960   960   960   960   960 MxSgAt=    31 MxSgA2=    31.
 Leave Link  302 at Mon Feb  6 16:35:19 2023, MaxMem= 14763950080 cpu:               2.6 elap:               2.6
 (Enter /software/commercial/gaussian/g16/AVX2/g16/l303.exe)
 DipDrv:  MaxL=1.
 Leave Link  303 at Mon Feb  6 16:35:22 2023, MaxMem= 14763950080 cpu:               0.2 elap:               0.8
 (Enter /software/commercial/gaussian/g16/AVX2/g16/l401.exe)
 ExpMin= 4.20D-02 ExpMax= 3.01D+05 ExpMxC= 2.91D+03 IAcc=3 IRadAn=         5 AccDes= 0.00D+00
 Harris functional with IExCor= 1009 and IRadAn=       5 diagonalized for initial guess.
 HarFok:  IExCor= 1009 AccDes= 0.00D+00 IRadAn=         5 IDoV= 1 UseB2=F ITyADJ=14
 ICtDFT=  3500011 ScaDFX=  1.000000  1.000000  1.000000  1.000000
 FoFCou: FMM=F IPFlag=           0 FMFlag=      100000 FMFlg1=           0
         NFxFlg=           0 DoJE=T BraDBF=F KetDBF=T FulRan=T
         wScrn=  0.000000 ICntrl=       500 IOpCl=  0 I1Cent=   200000004 NGrid=           0
         NMat0=    1 NMatS0=      1 NMatT0=    0 NMatD0=    1 NMtDS0=    0 NMtDT0=    0
 Symmetry not used in FoFCou.
 Harris En= -5184.50062944648    
 JPrj=0 DoOrth=F DoCkMO=F.
 Initial guess <Sx>= 0.0000 <Sy>= 0.0000 <Sz>= 7.0000 <S**2>=56.0000 S= 7.0000
 Leave Link  401 at Mon Feb  6 16:35:42 2023, MaxMem= 14763950080 cpu:              35.6 elap:              19.2
 (Enter /software/commercial/gaussian/g16/AVX2/g16/l502.exe)
 Two-electron integral symmetry not used.
 UHF open shell SCF:
 Using DIIS extrapolation, IDIIS=  1040.
 NGot= 14763950080 LenX= 14762000842 LenY= 14761031602
 Requested convergence on RMS density matrix=1.00D-08 within 150 cycles.
 Requested convergence on MAX density matrix=1.00D-06.
 Requested convergence on             energy=1.00D-06.
 No special actions if energy rises.
 Fock matrices will be formed incrementally for  20 cycles.

 Cycle   1  Pass 1  IDiag  1:
 FoFJK:  IHMeth= 1 ICntrl=     500 DoSepK=F KAlg= 0 I1Cent=           0 FoldK=F
 IRaf= 770000000 NMat=       1 IRICut=       1 DoRegI=T DoRafI=F ISym2E= 0 IDoP0=0 IntGTp=1.
 FoFCou: FMM=F IPFlag=           0 FMFlag=      100000 FMFlg1=           0
         NFxFlg=           0 DoJE=T BraDBF=F KetDBF=F FulRan=T
         wScrn=  0.000000 ICntrl=       500 IOpCl=  0 I1Cent=           0 NGrid=           0
         NMat0=    1 NMatS0=      1 NMatT0=    0 NMatD0=    1 NMtDS0=    0 NMtDT0=    0
 Symmetry not used in FoFCou.
 E= -5185.31311096306    
 DIIS: error= 6.50D-02 at cycle   1 NSaved=   1.
 NSaved= 1 IEnMin= 1 EnMin= -5185.31311096306     IErMin= 1 ErrMin= 6.50D-02
 ErrMax= 6.50D-02  0.00D+00 EMaxC= 1.00D-01 BMatC= 1.12D+01 BMatP= 1.12D+01
 IDIUse=3 WtCom= 3.50D-01 WtEn= 6.50D-01
 Coeff-Com:  0.100D+01
 Coeff-En:   0.100D+01
 Coeff:      0.100D+01
 Gap=     0.098 Goal=   None    Shift=    0.000
 Gap=    -0.155 Goal=   None    Shift=    0.000
 GapD=   -0.155 DampG=0.250 DampE=0.250 DampFc=0.1250 IDamp=-1.
 Damping current iteration by 1.25D-01
 RMSDP=3.92D-03 MaxDP=9.09D-01              OVMax= 9.45D-01

 Cycle   2  Pass 1  IDiag  1:
 RMSU=  4.89D-04    CP:  9.98D-01
 E= -5185.82989329673     Delta-E=       -0.516782333671 Rises=F Damp=T
 DIIS: error= 1.93D-02 at cycle   2 NSaved=   2.
 NSaved= 2 IEnMin= 2 EnMin= -5185.82989329673     IErMin= 2 ErrMin= 1.93D-02
 ErrMax= 1.93D-02  0.00D+00 EMaxC= 1.00D-01 BMatC= 2.41D+00 BMatP= 1.12D+01
 IDIUse=3 WtCom= 8.07D-01 WtEn= 1.93D-01
 Coeff-Com: -0.402D+00 0.140D+01
 Coeff-En:   0.103D+00 0.897D+00
 Coeff:     -0.305D+00 0.130D+01
 Gap=     0.303 Goal=   None    Shift=    0.000
 Gap=     0.166 Goal=   None    Shift=    0.000
 RMSDP=1.54D-03 MaxDP=1.56D-01 DE=-5.17D-01 OVMax= 9.43D-01

 Cycle   3  Pass 1  IDiag  1:
 RMSU=  1.54D-03    CP:  9.92D-01  9.15D-01
 E= -5184.93015240516     Delta-E=        0.899740891571 Rises=F Damp=F
 DIIS: error= 3.80D-02 at cycle   3 NSaved=   3.
 NSaved= 3 IEnMin= 2 EnMin= -5185.82989329673     IErMin= 2 ErrMin= 1.93D-02
 ErrMax= 3.80D-02  0.00D+00 EMaxC= 1.00D-01 BMatC= 7.81D+00 BMatP= 2.41D+00
 IDIUse=2 WtCom= 0.00D+00 WtEn= 1.00D+00
 Coeff-En:   0.000D+00 0.741D+00 0.259D+00
 Coeff:      0.000D+00 0.741D+00 0.259D+00
 Gap=    -0.037 Goal=   None    Shift=    0.000
 Gap=     0.130 Goal=   None    Shift=    0.000
 RMSDP=2.58D-03 MaxDP=3.76D-01 DE= 9.00D-01 OVMax= 8.61D-01

 Cycle   4  Pass 1  IDiag  1:
 RMSU=  1.66D-03    CP:  9.80D-01  3.00D+00  1.39D-01
 E= -5171.01142048324     Delta-E=       13.918731921922 Rises=F Damp=F
 DIIS: error= 2.51D-01 at cycle   4 NSaved=   4.
 NSaved= 4 IEnMin= 2 EnMin= -5185.82989329673     IErMin= 2 ErrMin= 1.93D-02
 ErrMax= 2.51D-01  0.00D+00 EMaxC= 1.00D-01 BMatC= 8.31D+01 BMatP= 2.41D+00
 IDIUse=2 WtCom= 0.00D+00 WtEn= 1.00D+00
 EnCoef did   100 forward-backward iterations
 Coeff-En:   0.345D+00 0.256D-01 0.461D+00 0.168D+00
 Coeff:      0.345D+00 0.256D-01 0.461D+00 0.168D+00
 Gap=     0.259 Goal=   None    Shift=    0.000
 Gap=    -0.029 Goal=   None    Shift=    0.000
 RMSDP=2.19D-03 MaxDP=3.60D-01 DE= 1.39D+01 OVMax= 9.14D-01

 Cycle   5  Pass 1  IDiag  1:
 RMSU=  1.50D-03    CP:  9.90D-01  2.66D+00  1.96D-01  8.73D-02
 E= -5179.62403929402     Delta-E=       -8.612618810788 Rises=F Damp=F
 DIIS: error= 2.27D-01 at cycle   5 NSaved=   5.
 NSaved= 5 IEnMin= 2 EnMin= -5185.82989329673     IErMin= 2 ErrMin= 1.93D-02
 ErrMax= 2.27D-01  0.00D+00 EMaxC= 1.00D-01 BMatC= 4.44D+01 BMatP= 2.41D+00
 IDIUse=2 WtCom= 0.00D+00 WtEn= 1.00D+00
 EnCoef did   100 forward-backward iterations
 Coeff-En:   0.360D+00 0.130D-01 0.395D+00 0.143D+00 0.883D-01
 Coeff:      0.360D+00 0.130D-01 0.395D+00 0.143D+00 0.883D-01
 Gap=     0.059 Goal=   None    Shift=    0.000
 Gap=    -0.000 Goal=   None    Shift=    0.000
 RMSDP=1.51D-03 MaxDP=3.69D-01 DE=-8.61D+00 OVMax= 9.87D-01

 Cycle   6  Pass 1  IDiag  1:
 RMSU=  9.58D-04    CP:  9.92D-01  1.87D+00  3.19D-01  3.77D-01  3.52D-01
 E= -5186.00608132207     Delta-E=       -6.382042028044 Rises=F Damp=F
 DIIS: error= 4.41D-02 at cycle   6 NSaved=   6.
 NSaved= 6 IEnMin= 6 EnMin= -5186.00608132207     IErMin= 2 ErrMin= 1.93D-02
 ErrMax= 4.41D-02  0.00D+00 EMaxC= 1.00D-01 BMatC= 3.86D+00 BMatP= 2.41D+00
 IDIUse=2 WtCom= 0.00D+00 WtEn= 1.00D+00
 EnCoef did     4 forward-backward iterations
 Coeff-En:   0.177D-01 0.000D+00 0.346D+00 0.000D+00 0.251D-01 0.611D+00
 Coeff:      0.177D-01 0.000D+00 0.346D+00 0.000D+00 0.251D-01 0.611D+00
 Gap=     0.076 Goal=   None    Shift=    0.000
 Gap=    -0.035 Goal=   None    Shift=    0.000
 RMSDP=1.40D-03 MaxDP=2.85D-01 DE=-6.38D+00 OVMax= 9.86D-01

 Cycle   7  Pass 1  IDiag  1:
 RMSU=  1.01D-03    CP:  9.95D-01  1.13D+00  3.58D-01  1.04D-01  3.37D-01
                    CP:  1.93D-01
 E= -5184.89521840928     Delta-E=        1.110862912790 Rises=F Damp=F
 DIIS: error= 5.14D-02 at cycle   7 NSaved=   7.
 NSaved= 7 IEnMin= 6 EnMin= -5186.00608132207     IErMin= 2 ErrMin= 1.93D-02
 ErrMax= 5.14D-02  0.00D+00 EMaxC= 1.00D-01 BMatC= 9.69D+00 BMatP= 2.41D+00
 IDIUse=2 WtCom= 0.00D+00 WtEn= 1.00D+00
 EnCoef did    11 forward-backward iterations
 Coeff-En:   0.000D+00 0.000D+00 0.213D+00 0.000D+00 0.000D+00 0.588D+00
 Coeff-En:   0.199D+00
 Coeff:      0.000D+00 0.000D+00 0.213D+00 0.000D+00 0.000D+00 0.588D+00
 Coeff:      0.199D+00
 Gap=     0.006 Goal=   None    Shift=    0.000
 Gap=     0.031 Goal=   None    Shift=    0.000
 RMSDP=1.17D-03 MaxDP=2.12D-01 DE= 1.11D+00 OVMax= 7.44D-01

 Cycle   8  Pass 1  IDiag  1:
 RMSU=  6.10D-04    CP:  9.96D-01  9.89D-01  6.80D-01  9.92D-02  1.32D-01
                    CP:  2.16D-01  2.05D-01
 E= -5186.05508558111     Delta-E=       -1.159867171831 Rises=F Damp=F
 DIIS: error= 2.61D-02 at cycle   8 NSaved=   8.
 NSaved= 8 IEnMin= 8 EnMin= -5186.05508558111     IErMin= 2 ErrMin= 1.93D-02
 ErrMax= 2.61D-02  0.00D+00 EMaxC= 1.00D-01 BMatC= 2.34D+00 BMatP= 2.41D+00
 IDIUse=3 WtCom= 7.39D-01 WtEn= 2.61D-01
 EnCoef did   100 forward-backward iterations
 Coeff-Com: -0.176D+00 0.312D+00 0.680D-01-0.980D-02-0.501D-02 0.353D+00
 Coeff-Com:  0.101D+00 0.357D+00
 Coeff-En:   0.000D+00 0.000D+00 0.000D+00 0.000D+00 0.401D-02 0.490D+00
 Coeff-En:   0.108D+00 0.398D+00
 Coeff:     -0.130D+00 0.230D+00 0.502D-01-0.724D-02-0.265D-02 0.389D+00
 Coeff:      0.103D+00 0.368D+00
 Gap=    -0.029 Goal=   None    Shift=    0.000
 Gap=    -0.058 Goal=   None    Shift=    0.000
 RMSDP=1.30D-03 MaxDP=1.50D-01 DE=-1.16D+00 OVMax= 9.86D-01

 Cycle   9  Pass 1  IDiag  1:
 RMSU=  6.89D-04    CP:  9.91D-01  1.80D+00  3.81D-01  3.30D-01  3.76D-01
                    CP:  6.38D-01  1.21D-01 -6.59D-03
 E= -5186.17414198599     Delta-E=       -0.119056404885 Rises=F Damp=F
 DIIS: error= 2.12D-02 at cycle   9 NSaved=   9.
 NSaved= 9 IEnMin= 9 EnMin= -5186.17414198599     IErMin= 2 ErrMin= 1.93D-02
 ErrMax= 2.12D-02  0.00D+00 EMaxC= 1.00D-01 BMatC= 2.19D+00 BMatP= 2.34D+00
 IDIUse=3 WtCom= 7.88D-01 WtEn= 2.12D-01
 EnCoef did    12 forward-backward iterations
 Coeff-Com: -0.141D+00 0.223D+00 0.153D-01-0.197D-01 0.101D-01 0.257D+00
 Coeff-Com:  0.201D-01 0.426D+00 0.209D+00
 Coeff-En:   0.000D+00 0.000D+00 0.000D+00 0.000D+00 0.000D+00 0.269D+00
 Coeff-En:   0.000D+00 0.449D+00 0.281D+00
 Coeff:     -0.112D+00 0.176D+00 0.121D-01-0.156D-01 0.797D-02 0.260D+00
 Coeff:      0.159D-01 0.431D+00 0.225D+00
 Gap=     0.092 Goal=   None    Shift=    0.000
 Gap=     0.012 Goal=   None    Shift=    0.000
 RMSDP=7.57D-04 MaxDP=2.84D-01 DE=-1.19D-01 OVMax= 9.50D-01

 Cycle  10  Pass 1  IDiag  1:
 RMSU=  4.38D-04    CP:  9.92D-01  1.72D+00  3.67D-01  3.13D-01  3.88D-01
                    CP:  8.11D-01  3.76D-02 -9.12D-03  1.49D-01
 E= -5186.32480224927     Delta-E=       -0.150660263280 Rises=F Damp=F
 DIIS: error= 2.21D-02 at cycle  10 NSaved=  10.
 NSaved=10 IEnMin=10 EnMin= -5186.32480224927     IErMin= 2 ErrMin= 1.93D-02
 ErrMax= 2.21D-02  0.00D+00 EMaxC= 1.00D-01 BMatC= 1.69D+00 BMatP= 2.19D+00
 IDIUse=3 WtCom= 7.88D-01 WtEn= 2.12D-01
 EnCoef did    16 forward-backward iterations
 Coeff-Com: -0.161D+00 0.231D+00-0.435D-03-0.141D-01-0.972D-02 0.113D+00
 Coeff-Com:  0.353D-01 0.400D+00 0.212D+00 0.194D+00
 Coeff-En:   0.000D+00 0.000D+00 0.000D+00 0.000D+00 0.000D+00 0.173D-01
 Coeff-En:   0.000D+00 0.388D+00 0.282D+00 0.313D+00
 Coeff:     -0.127D+00 0.182D+00-0.343D-03-0.111D-01-0.766D-02 0.930D-01
 Coeff:      0.279D-01 0.397D+00 0.227D+00 0.219D+00
 Gap=     0.046 Goal=   None    Shift=    0.000
 Gap=     0.003 Goal=   None    Shift=    0.000
 RMSDP=7.43D-04 MaxDP=2.74D-01 DE=-1.51D-01 OVMax= 9.02D-01

 Cycle  11  Pass 1  IDiag  1:
 RMSU=  5.40D-04    CP:  9.96D-01  1.50D+00  4.20D-01  2.06D-01  3.53D-01
                    CP:  5.17D-01  1.39D-01  2.24D-01  1.93D-01  2.90D-01
 E= -5186.70547302766     Delta-E=       -0.380670778382 Rises=F Damp=F
 DIIS: error= 1.02D-02 at cycle  11 NSaved=  11.
 NSaved=11 IEnMin=11 EnMin= -5186.70547302766     IErMin=11 ErrMin= 1.02D-02
 ErrMax= 1.02D-02  0.00D+00 EMaxC= 1.00D-01 BMatC= 2.20D-01 BMatP= 1.69D+00
 IDIUse=3 WtCom= 8.98D-01 WtEn= 1.02D-01
 EnCoef did    11 forward-backward iterations
 Coeff-Com: -0.725D-01 0.976D-01-0.242D-01-0.273D-02-0.153D-01 0.496D-01
 Coeff-Com: -0.198D-01 0.288D+00 0.135D+00 0.874D-01 0.477D+00
 Coeff-En:   0.000D+00 0.000D+00 0.000D+00 0.000D+00 0.000D+00 0.887D-01
 Coeff-En:   0.000D+00 0.108D+00 0.157D-01 0.162D-03 0.787D+00
 Coeff:     -0.651D-01 0.877D-01-0.218D-01-0.245D-02-0.137D-01 0.536D-01
 Coeff:     -0.178D-01 0.270D+00 0.123D+00 0.785D-01 0.509D+00
 Gap=     0.059 Goal=   None    Shift=    0.000
 Gap=     0.006 Goal=   None    Shift=    0.000
 RMSDP=3.61D-04 MaxDP=7.84D-02 DE=-3.81D-01 OVMax= 3.26D-01

 Cycle  12  Pass 1  IDiag  1:
 RMSU=  3.01D-04    CP:  9.95D-01  1.45D+00  4.74D-01  2.22D-01  2.87D-01
                    CP:  5.44D-01  8.88D-02  4.07D-01  2.63D-01  2.30D-01
                    CP:  9.11D-01
 E= -5186.72205071906     Delta-E=       -0.016577691404 Rises=F Damp=F
 DIIS: error= 7.75D-03 at cycle  12 NSaved=  12.
 NSaved=12 IEnMin=12 EnMin= -5186.72205071906     IErMin=12 ErrMin= 7.75D-03
 ErrMax= 7.75D-03  0.00D+00 EMaxC= 1.00D-01 BMatC= 1.53D-01 BMatP= 2.20D-01
 IDIUse=3 WtCom= 9.22D-01 WtEn= 7.75D-02
 Coeff-Com: -0.385D-01 0.551D-01-0.118D-01-0.562D-03-0.429D-02 0.180D-01
 Coeff-Com: -0.179D-01 0.103D+00 0.330D-01 0.254D-01 0.437D+00 0.401D+00
 Coeff-En:   0.000D+00 0.000D+00 0.000D+00 0.000D+00 0.000D+00 0.000D+00
 Coeff-En:   0.000D+00 0.000D+00 0.000D+00 0.000D+00 0.431D+00 0.569D+00
 Coeff:     -0.355D-01 0.508D-01-0.109D-01-0.519D-03-0.396D-02 0.166D-01
 Coeff:     -0.165D-01 0.955D-01 0.304D-01 0.235D-01 0.437D+00 0.414D+00
 Gap=     0.066 Goal=   None    Shift=    0.000
 Gap=     0.018 Goal=   None    Shift=    0.000
 RMSDP=1.93D-04 MaxDP=2.48D-02 DE=-1.66D-02 OVMax= 1.33D-01

 Cycle  13  Pass 1  IDiag  1:
 RMSU=  1.13D-04    CP:  9.96D-01  1.48D+00  4.54D-01  2.13D-01  3.09D-01
                    CP:  5.32D-01  1.08D-01  3.81D-01  2.41D-01  2.45D-01
                    CP:  9.86D-01  5.40D-01
 E= -5186.74982502640     Delta-E=       -0.027774307342 Rises=F Damp=F
 DIIS: error= 3.76D-03 at cycle  13 NSaved=  13.
 NSaved=13 IEnMin=13 EnMin= -5186.74982502640     IErMin=13 ErrMin= 3.76D-03
 ErrMax= 3.76D-03  0.00D+00 EMaxC= 1.00D-01 BMatC= 2.87D-02 BMatP= 1.53D-01
 IDIUse=3 WtCom= 9.62D-01 WtEn= 3.76D-02
 EnCoef did     7 forward-backward iterations
 Coeff-Com: -0.165D-01 0.219D-01-0.470D-02-0.129D-03 0.353D-03 0.139D-02
 Coeff-Com: -0.242D-02 0.173D-01 0.644D-02 0.346D-01 0.209D+00 0.304D+00
 Coeff-Com:  0.429D+00
 Coeff-En:   0.000D+00 0.000D+00 0.000D+00 0.000D+00 0.000D+00 0.000D+00
 Coeff-En:   0.000D+00 0.000D+00 0.000D+00 0.000D+00 0.346D-01 0.151D+00
 Coeff-En:   0.815D+00
 Coeff:     -0.159D-01 0.211D-01-0.452D-02-0.124D-03 0.339D-03 0.134D-02
 Coeff:     -0.233D-02 0.167D-01 0.620D-02 0.333D-01 0.203D+00 0.298D+00
 Coeff:      0.443D+00
 Gap=     0.067 Goal=   None    Shift=    0.000
 Gap=     0.028 Goal=   None    Shift=    0.000
 RMSDP=1.05D-04 MaxDP=1.68D-02 DE=-2.78D-02 OVMax= 9.37D-02

 Cycle  14  Pass 1  IDiag  1:
 RMSU=  8.37D-05    CP:  9.95D-01  1.49D+00  4.64D-01  2.16D-01  3.12D-01
                    CP:  5.29D-01  1.04D-01  4.09D-01  2.52D-01  2.26D-01
                    CP:  9.57D-01  7.14D-01  8.30D-01
 E= -5186.75222834333     Delta-E=       -0.002403316925 Rises=F Damp=F
 DIIS: error= 2.15D-03 at cycle  14 NSaved=  14.
 NSaved=14 IEnMin=14 EnMin= -5186.75222834333     IErMin=14 ErrMin= 2.15D-03
 ErrMax= 2.15D-03  0.00D+00 EMaxC= 1.00D-01 BMatC= 1.61D-02 BMatP= 2.87D-02
 IDIUse=3 WtCom= 9.78D-01 WtEn= 2.15D-02
 Coeff-Com: -0.212D-01 0.266D-01-0.297D-02 0.290D-04 0.450D-03-0.138D-01
 Coeff-Com:  0.381D-02-0.706D-02 0.695D-02 0.485D-01 0.202D-01 0.727D-01
 Coeff-Com:  0.363D+00 0.502D+00
 Coeff-En:   0.000D+00 0.000D+00 0.000D+00 0.000D+00 0.000D+00 0.000D+00
 Coeff-En:   0.000D+00 0.000D+00 0.000D+00 0.000D+00 0.000D+00 0.000D+00
 Coeff-En:   0.357D+00 0.643D+00
 Coeff:     -0.207D-01 0.260D-01-0.291D-02 0.283D-04 0.440D-03-0.135D-01
 Coeff:      0.373D-02-0.691D-02 0.680D-02 0.475D-01 0.198D-01 0.711D-01
 Coeff:      0.363D+00 0.505D+00
 Gap=     0.076 Goal=   None    Shift=    0.000
 Gap=     0.026 Goal=   None    Shift=    0.000
 RMSDP=4.53D-05 MaxDP=5.71D-03 DE=-2.40D-03 OVMax= 3.02D-02

 Cycle  15  Pass 1  IDiag  1:
 RMSU=  3.16D-05    CP:  9.95D-01  1.50D+00  4.60D-01  2.14D-01  3.15D-01
                    CP:  5.24D-01  1.09D-01  4.04D-01  2.57D-01  2.52D-01
                    CP:  9.58D-01  6.65D-01  9.46D-01  7.74D-01
 E= -5186.75508239972     Delta-E=       -0.002854056391 Rises=F Damp=F
 DIIS: error= 1.18D-03 at cycle  15 NSaved=  15.
 NSaved=15 IEnMin=15 EnMin= -5186.75508239972     IErMin=15 ErrMin= 1.18D-03
 ErrMax= 1.18D-03  0.00D+00 EMaxC= 1.00D-01 BMatC= 4.04D-03 BMatP= 1.61D-02
 IDIUse=3 WtCom= 9.88D-01 WtEn= 1.18D-02
 Coeff-Com: -0.812D-02 0.119D-01-0.329D-03-0.287D-03-0.463D-03 0.259D-02
 Coeff-Com: -0.101D-02-0.166D-01 0.107D-01 0.126D-01-0.554D-01-0.970D-01
 Coeff-Com:  0.722D-01 0.296D+00 0.773D+00
 Coeff-En:   0.000D+00 0.000D+00 0.000D+00 0.000D+00 0.000D+00 0.000D+00
 Coeff-En:   0.000D+00 0.000D+00 0.000D+00 0.000D+00 0.000D+00 0.000D+00
 Coeff-En:   0.000D+00 0.000D+00 0.100D+01
 Coeff:     -0.802D-02 0.118D-01-0.325D-03-0.283D-03-0.458D-03 0.256D-02
 Coeff:     -0.100D-02-0.164D-01 0.105D-01 0.124D-01-0.548D-01-0.959D-01
 Coeff:      0.714D-01 0.293D+00 0.776D+00
 Gap=     0.084 Goal=   None    Shift=    0.000
 Gap=     0.022 Goal=   None    Shift=    0.000
 RMSDP=3.09D-05 MaxDP=2.67D-03 DE=-2.85D-03 OVMax= 1.81D-02

 Cycle  16  Pass 1  IDiag  1:
 RMSU=  2.71D-05    CP:  9.95D-01  1.51D+00  4.56D-01  2.16D-01  3.15D-01
                    CP:  5.25D-01  1.07D-01  4.05D-01  2.61D-01  2.62D-01
                    CP:  9.62D-01  6.50D-01  1.02D+00  7.09D-01  1.08D+00
 E= -5186.75576096265     Delta-E=       -0.000678562928 Rises=F Damp=F
 DIIS: error= 5.35D-04 at cycle  16 NSaved=  16.
 NSaved=16 IEnMin=16 EnMin= -5186.75576096265     IErMin=16 ErrMin= 5.35D-04
 ErrMax= 5.35D-04  0.00D+00 EMaxC= 1.00D-01 BMatC= 1.26D-03 BMatP= 4.04D-03
 IDIUse=3 WtCom= 9.95D-01 WtEn= 5.35D-03
 Coeff-Com:  0.742D-03-0.817D-04-0.663D-03-0.119D-03-0.505D-03 0.946D-02
 Coeff-Com: -0.164D-02-0.124D-01 0.704D-02-0.330D-02-0.210D-01-0.533D-01
 Coeff-Com:  0.652D-02 0.814D-01 0.468D+00 0.519D+00
 Coeff-En:   0.000D+00 0.000D+00 0.000D+00 0.000D+00 0.000D+00 0.000D+00
 Coeff-En:   0.000D+00 0.000D+00 0.000D+00 0.000D+00 0.000D+00 0.000D+00
 Coeff-En:   0.000D+00 0.000D+00 0.000D+00 0.100D+01
 Coeff:      0.738D-03-0.813D-04-0.659D-03-0.119D-03-0.502D-03 0.941D-02
 Coeff:     -0.163D-02-0.123D-01 0.701D-02-0.329D-02-0.208D-01-0.530D-01
 Coeff:      0.648D-02 0.810D-01 0.466D+00 0.522D+00
 Gap=     0.083 Goal=   None    Shift=    0.000
 Gap=     0.022 Goal=   None    Shift=    0.000
 RMSDP=1.87D-05 MaxDP=2.99D-03 DE=-6.79D-04 OVMax= 1.41D-02

 Cycle  17  Pass 1  IDiag  1:
 RMSU=  1.46D-05    CP:  9.95D-01  1.51D+00  4.56D-01  2.17D-01  3.14D-01
                    CP:  5.28D-01  1.06D-01  4.11D-01  2.59D-01  2.51D-01
                    CP:  9.61D-01  6.65D-01  1.04D+00  7.66D-01  1.09D+00
                    CP:  7.89D-01
 E= -5186.75582509340     Delta-E=       -0.000064130754 Rises=F Damp=F
 DIIS: error= 5.13D-04 at cycle  17 NSaved=  17.
 NSaved=17 IEnMin=17 EnMin= -5186.75582509340     IErMin=17 ErrMin= 5.13D-04
 ErrMax= 5.13D-04  0.00D+00 EMaxC= 1.00D-01 BMatC= 8.31D-04 BMatP= 1.26D-03
 IDIUse=3 WtCom= 9.95D-01 WtEn= 5.13D-03
 Coeff-Com: -0.201D-03 0.944D-03-0.160D-02-0.119D-03-0.636D-04 0.507D-02
 Coeff-Com: -0.694D-03-0.414D-02 0.401D-02-0.312D-02 0.383D-02-0.233D-02
 Coeff-Com: -0.253D-01-0.548D-01 0.578D-01 0.445D+00 0.575D+00
 Coeff-En:   0.000D+00 0.000D+00 0.000D+00 0.000D+00 0.000D+00 0.000D+00
 Coeff-En:   0.000D+00 0.000D+00 0.000D+00 0.000D+00 0.000D+00 0.000D+00
 Coeff-En:   0.000D+00 0.000D+00 0.000D+00 0.393D+00 0.607D+00
 Coeff:     -0.200D-03 0.940D-03-0.159D-02-0.118D-03-0.632D-04 0.504D-02
 Coeff:     -0.690D-03-0.412D-02 0.399D-02-0.311D-02 0.381D-02-0.232D-02
 Coeff:     -0.252D-01-0.545D-01 0.575D-01 0.445D+00 0.575D+00
 Gap=     0.085 Goal=   None    Shift=    0.000
 Gap=     0.020 Goal=   None    Shift=    0.000
 RMSDP=1.93D-05 MaxDP=3.29D-03 DE=-6.41D-05 OVMax= 2.10D-02

 Cycle  18  Pass 1  IDiag  1:
 RMSU=  7.69D-06    CP:  9.95D-01  1.52D+00  4.53D-01  2.17D-01  3.16D-01
                    CP:  5.27D-01  1.08D-01  4.04D-01  2.59D-01  2.58D-01
                    CP:  9.65D-01  6.40D-01  1.01D+00  6.71D-01  1.27D+00
                    CP:  1.08D+00  7.40D-01
 E= -5186.75600970724     Delta-E=       -0.000184613840 Rises=F Damp=F
 DIIS: error= 1.75D-04 at cycle  18 NSaved=  18.
 NSaved=18 IEnMin=18 EnMin= -5186.75600970724     IErMin=18 ErrMin= 1.75D-04
 ErrMax= 1.75D-04  0.00D+00 EMaxC= 1.00D-01 BMatC= 1.26D-04 BMatP= 8.31D-04
 IDIUse=3 WtCom= 9.98D-01 WtEn= 1.75D-03
 Coeff-Com:  0.256D-04 0.962D-04-0.100D-02-0.153D-07-0.702D-04 0.137D-02
 Coeff-Com: -0.404D-04-0.101D-02 0.118D-02 0.152D-03 0.651D-02 0.157D-01
 Coeff-Com: -0.719D-02-0.389D-01-0.831D-01 0.151D+00 0.406D+00 0.549D+00
 Coeff-En:   0.000D+00 0.000D+00 0.000D+00 0.000D+00 0.000D+00 0.000D+00
 Coeff-En:   0.000D+00 0.000D+00 0.000D+00 0.000D+00 0.000D+00 0.000D+00
 Coeff-En:   0.000D+00 0.000D+00 0.000D+00 0.000D+00 0.694D-01 0.931D+00
 Coeff:      0.256D-04 0.960D-04-0.100D-02-0.153D-07-0.701D-04 0.136D-02
 Coeff:     -0.403D-04-0.101D-02 0.118D-02 0.152D-03 0.650D-02 0.157D-01
 Coeff:     -0.718D-02-0.389D-01-0.829D-01 0.151D+00 0.405D+00 0.550D+00
 Gap=     0.085 Goal=   None    Shift=    0.000
 Gap=     0.020 Goal=   None    Shift=    0.000
 RMSDP=5.01D-06 MaxDP=4.50D-04 DE=-1.85D-04 OVMax= 3.17D-03

 Cycle  19  Pass 1  IDiag  1:
 RMSU=  3.39D-06    CP:  9.95D-01  1.52D+00  4.53D-01  2.17D-01  3.15D-01
                    CP:  5.27D-01  1.08D-01  4.05D-01  2.59D-01  2.58D-01
                    CP:  9.65D-01  6.42D-01  1.00D+00  6.52D-01  1.25D+00
                    CP:  1.15D+00  8.50D-01  8.53D-01
 E= -5186.75603109127     Delta-E=       -0.000021384025 Rises=F Damp=F
 DIIS: error= 1.25D-04 at cycle  19 NSaved=  19.
 NSaved=19 IEnMin=19 EnMin= -5186.75603109127     IErMin=19 ErrMin= 1.25D-04
 ErrMax= 1.25D-04  0.00D+00 EMaxC= 1.00D-01 BMatC= 3.04D-05 BMatP= 1.26D-04
 IDIUse=3 WtCom= 9.99D-01 WtEn= 1.25D-03
 Coeff-Com: -0.826D-05 0.588D-04-0.125D-03-0.698D-05-0.843D-05-0.241D-04
 Coeff-Com: -0.132D-03-0.276D-03 0.448D-04 0.101D-02-0.232D-03 0.982D-02
 Coeff-Com:  0.595D-02 0.197D-02-0.631D-01-0.325D-01 0.127D+00 0.322D+00
 Coeff-Com:  0.629D+00
 Coeff-En:   0.000D+00 0.000D+00 0.000D+00 0.000D+00 0.000D+00 0.000D+00
 Coeff-En:   0.000D+00 0.000D+00 0.000D+00 0.000D+00 0.000D+00 0.000D+00
 Coeff-En:   0.000D+00 0.000D+00 0.000D+00 0.000D+00 0.000D+00 0.000D+00
 Coeff-En:   0.100D+01
 Coeff:     -0.824D-05 0.588D-04-0.124D-03-0.697D-05-0.842D-05-0.240D-04
 Coeff:     -0.132D-03-0.276D-03 0.447D-04 0.101D-02-0.231D-03 0.981D-02
 Coeff:      0.595D-02 0.197D-02-0.631D-01-0.325D-01 0.126D+00 0.321D+00
 Coeff:      0.630D+00
 Gap=     0.085 Goal=   None    Shift=    0.000
 Gap=     0.019 Goal=   None    Shift=    0.000
 RMSDP=2.41D-06 MaxDP=2.56D-04 DE=-2.14D-05 OVMax= 1.97D-03

 Cycle  20  Pass 1  IDiag  1:
 RMSU=  1.47D-06    CP:  9.95D-01  1.52D+00  4.53D-01  2.17D-01  3.15D-01
                    CP:  5.28D-01  1.08D-01  4.05D-01  2.58D-01  2.58D-01
                    CP:  9.65D-01  6.42D-01  9.95D-01  6.38D-01  1.25D+00
                    CP:  1.18D+00  8.84D-01  9.74D-01  9.57D-01
 E= -5186.75603564783     Delta-E=       -0.000004556568 Rises=F Damp=F
 DIIS: error= 5.02D-05 at cycle  20 NSaved=  20.
 NSaved=20 IEnMin=20 EnMin= -5186.75603564783     IErMin=20 ErrMin= 5.02D-05
 ErrMax= 5.02D-05  0.00D+00 EMaxC= 1.00D-01 BMatC= 6.04D-06 BMatP= 3.04D-05
 IDIUse=1 WtCom= 1.00D+00 WtEn= 0.00D+00
 Coeff-Com:  0.372D-04-0.551D-04 0.102D-03-0.454D-05-0.461D-05 0.445D-04
 Coeff-Com: -0.127D-03-0.144D-03-0.140D-03 0.248D-03-0.236D-02 0.257D-02
 Coeff-Com:  0.714D-02 0.130D-01-0.181D-01-0.519D-01 0.386D-03 0.679D-01
 Coeff-Com:  0.374D+00 0.607D+00
 Coeff:      0.372D-04-0.551D-04 0.102D-03-0.454D-05-0.461D-05 0.445D-04
 Coeff:     -0.127D-03-0.144D-03-0.140D-03 0.248D-03-0.236D-02 0.257D-02
 Coeff:      0.714D-02 0.130D-01-0.181D-01-0.519D-01 0.386D-03 0.679D-01
 Coeff:      0.374D+00 0.607D+00
 Gap=     0.084 Goal=   None    Shift=    0.000
 Gap=     0.019 Goal=   None    Shift=    0.000
 RMSDP=9.16D-07 MaxDP=9.02D-05 DE=-4.56D-06 OVMax= 3.54D-04

 Cycle  21  Pass 1  IDiag  1:
 Restarting incremental Fock formation.
 E= -5186.75603664184     Delta-E=       -0.000000994001 Rises=F Damp=F
 DIIS: error= 1.18D-05 at cycle  21 NSaved=  20.
 NSaved=20 IEnMin=20 EnMin= -5186.75603664184     IErMin=20 ErrMin= 1.18D-05
 ErrMax= 1.18D-05  0.00D+00 EMaxC= 1.00D-01 BMatC= 6.19D-07 BMatP= 6.04D-06
 IDIUse=1 WtCom= 1.00D+00 WtEn= 0.00D+00
 Coeff-Com:  0.365D-04-0.647D-04 0.429D-04-0.321D-05 0.552D-04-0.486D-04
 Coeff-Com: -0.269D-04-0.817D-04 0.461D-05-0.143D-02 0.489D-03 0.387D-02
 Coeff-Com:  0.761D-02-0.301D-02-0.257D-01-0.111D-01-0.464D-02 0.134D+00
 Coeff-Com:  0.350D+00 0.550D+00
 Coeff:      0.365D-04-0.647D-04 0.429D-04-0.321D-05 0.552D-04-0.486D-04
 Coeff:     -0.269D-04-0.817D-04 0.461D-05-0.143D-02 0.489D-03 0.387D-02
 Coeff:      0.761D-02-0.301D-02-0.257D-01-0.111D-01-0.464D-02 0.134D+00
 Coeff:      0.350D+00 0.550D+00
 Gap=     0.084 Goal=   None    Shift=    0.000
 Gap=     0.019 Goal=   None    Shift=    0.000
 RMSDP=4.02D-07 MaxDP=3.81D-05 DE=-9.94D-07 OVMax= 1.00D-04

 Cycle  22  Pass 1  IDiag  1:
 RMSU=  4.02D-07    CP:  1.00D+00
 E= -5186.75603671972     Delta-E=       -0.000000077887 Rises=F Damp=F
 DIIS: error= 8.06D-06 at cycle  22 NSaved=  20.
 NSaved=20 IEnMin=20 EnMin= -5186.75603671972     IErMin=20 ErrMin= 8.06D-06
 ErrMax= 8.06D-06  0.00D+00 EMaxC= 1.00D-01 BMatC= 2.60D-07 BMatP= 6.19D-07
 IDIUse=1 WtCom= 1.00D+00 WtEn= 0.00D+00
 Coeff-Com:  0.116D-04-0.168D-04-0.254D-05 0.146D-04 0.265D-07 0.258D-04
 Coeff-Com: -0.210D-04-0.317D-04-0.536D-03-0.212D-03 0.107D-02 0.233D-02
 Coeff-Com:  0.193D-02-0.539D-02-0.470D-02-0.217D-01 0.105D-02 0.101D+00
 Coeff-Com:  0.446D+00 0.479D+00
 Coeff:      0.116D-04-0.168D-04-0.254D-05 0.146D-04 0.265D-07 0.258D-04
 Coeff:     -0.210D-04-0.317D-04-0.536D-03-0.212D-03 0.107D-02 0.233D-02
 Coeff:      0.193D-02-0.539D-02-0.470D-02-0.217D-01 0.105D-02 0.101D+00
 Coeff:      0.446D+00 0.479D+00
 Gap=     0.084 Goal=   None    Shift=    0.000
 Gap=     0.019 Goal=   None    Shift=    0.000
 RMSDP=2.16D-07 MaxDP=1.91D-05 DE=-7.79D-08 OVMax= 8.52D-05

 Cycle  23  Pass 1  IDiag  1:
 RMSU=  2.03D-07    CP:  1.00D+00  8.16D-01
 E= -5186.75603676158     Delta-E=       -0.000000041857 Rises=F Damp=F
 DIIS: error= 3.48D-06 at cycle  23 NSaved=  20.
 NSaved=20 IEnMin=20 EnMin= -5186.75603676158     IErMin=20 ErrMin= 3.48D-06
 ErrMax= 3.48D-06  0.00D+00 EMaxC= 1.00D-01 BMatC= 4.35D-08 BMatP= 2.60D-07
 IDIUse=1 WtCom= 1.00D+00 WtEn= 0.00D+00
 Coeff-Com:  0.133D-04-0.128D-04-0.869D-05-0.927D-05 0.315D-04-0.794D-06
 Coeff-Com:  0.154D-05-0.900D-04-0.200D-03-0.670D-04 0.236D-03 0.167D-02
 Coeff-Com:  0.880D-03 0.464D-03-0.114D-01-0.202D-01-0.393D-02 0.151D+00
 Coeff-Com:  0.280D+00 0.602D+00
 Coeff:      0.133D-04-0.128D-04-0.869D-05-0.927D-05 0.315D-04-0.794D-06
 Coeff:      0.154D-05-0.900D-04-0.200D-03-0.670D-04 0.236D-03 0.167D-02
 Coeff:      0.880D-03 0.464D-03-0.114D-01-0.202D-01-0.393D-02 0.151D+00
 Coeff:      0.280D+00 0.602D+00
 Gap=     0.084 Goal=   None    Shift=    0.000
 Gap=     0.019 Goal=   None    Shift=    0.000
 RMSDP=1.07D-07 MaxDP=1.48D-05 DE=-4.19D-08 OVMax= 6.99D-05

 Cycle  24  Pass 1  IDiag  1:
 RMSU=  1.01D-07    CP:  1.00D+00  8.87D-01  9.10D-01
 E= -5186.75603677094     Delta-E=       -0.000000009361 Rises=F Damp=F
 DIIS: error= 7.60D-07 at cycle  24 NSaved=  20.
 NSaved=20 IEnMin=20 EnMin= -5186.75603677094     IErMin=20 ErrMin= 7.60D-07
 ErrMax= 7.60D-07  0.00D+00 EMaxC= 1.00D-01 BMatC= 3.70D-09 BMatP= 4.35D-08
 IDIUse=1 WtCom= 1.00D+00 WtEn= 0.00D+00
 Coeff-Com:  0.334D-05-0.877D-06-0.473D-05 0.926D-05-0.212D-05-0.126D-05
 Coeff-Com:  0.147D-04-0.904D-04-0.212D-03-0.164D-03 0.668D-03 0.114D-02
 Coeff-Com:  0.995D-03-0.272D-02-0.934D-02-0.142D-01 0.168D-01 0.803D-01
 Coeff-Com:  0.328D+00 0.599D+00
 Coeff:      0.334D-05-0.877D-06-0.473D-05 0.926D-05-0.212D-05-0.126D-05
 Coeff:      0.147D-04-0.904D-04-0.212D-03-0.164D-03 0.668D-03 0.114D-02
 Coeff:      0.995D-03-0.272D-02-0.934D-02-0.142D-01 0.168D-01 0.803D-01
 Coeff:      0.328D+00 0.599D+00
 Gap=     0.084 Goal=   None    Shift=    0.000
 Gap=     0.019 Goal=   None    Shift=    0.000
 RMSDP=3.78D-08 MaxDP=2.63D-06 DE=-9.36D-09 OVMax= 1.14D-05

 Cycle  25  Pass 1  IDiag  1:
 RMSU=  3.58D-08    CP:  1.00D+00  9.03D-01  9.59D-01  9.89D-01
 E= -5186.75603677133     Delta-E=       -0.000000000389 Rises=F Damp=F
 DIIS: error= 7.52D-07 at cycle  25 NSaved=  20.
 NSaved=20 IEnMin=20 EnMin= -5186.75603677133     IErMin=20 ErrMin= 7.52D-07
 ErrMax= 7.52D-07  0.00D+00 EMaxC= 1.00D-01 BMatC= 2.84D-09 BMatP= 3.70D-09
 IDIUse=1 WtCom= 1.00D+00 WtEn= 0.00D+00
 Coeff-Com: -0.122D-05-0.141D-05 0.337D-05 0.282D-06-0.356D-05 0.589D-04
 Coeff-Com: -0.130D-04-0.199D-03-0.274D-03 0.131D-04 0.871D-03 0.930D-03
 Coeff-Com:  0.166D-02-0.139D-02-0.114D-01-0.366D-01-0.247D-01 0.825D-01
 Coeff-Com:  0.507D+00 0.481D+00
 Coeff:     -0.122D-05-0.141D-05 0.337D-05 0.282D-06-0.356D-05 0.589D-04
 Coeff:     -0.130D-04-0.199D-03-0.274D-03 0.131D-04 0.871D-03 0.930D-03
 Coeff:      0.166D-02-0.139D-02-0.114D-01-0.366D-01-0.247D-01 0.825D-01
 Coeff:      0.507D+00 0.481D+00
 Gap=     0.084 Goal=   None    Shift=    0.000
 Gap=     0.019 Goal=   None    Shift=    0.000
 RMSDP=2.55D-08 MaxDP=2.72D-06 DE=-3.89D-10 OVMax= 8.98D-06

 Cycle  26  Pass 1  IDiag  1:
 RMSU=  2.41D-08    CP:  1.00D+00  9.06D-01  9.61D-01  1.06D+00  8.76D-01
 E= -5186.75603677169     Delta-E=       -0.000000000360 Rises=F Damp=F
 DIIS: error= 3.64D-07 at cycle  26 NSaved=  20.
 NSaved=20 IEnMin=20 EnMin= -5186.75603677169     IErMin=20 ErrMin= 3.64D-07
 ErrMax= 3.64D-07  0.00D+00 EMaxC= 1.00D-01 BMatC= 4.78D-10 BMatP= 2.84D-09
 IDIUse=1 WtCom= 1.00D+00 WtEn= 0.00D+00
 Coeff-Com: -0.259D-05 0.134D-05 0.248D-05 0.409D-07 0.312D-04 0.123D-04
 Coeff-Com: -0.522D-04-0.732D-04-0.164D-03 0.817D-04 0.245D-03 0.170D-02
 Coeff-Com:  0.232D-02-0.216D-02-0.265D-01-0.373D-01-0.413D-01 0.136D+00
 Coeff-Com:  0.283D+00 0.684D+00
 Coeff:     -0.259D-05 0.134D-05 0.248D-05 0.409D-07 0.312D-04 0.123D-04
 Coeff:     -0.522D-04-0.732D-04-0.164D-03 0.817D-04 0.245D-03 0.170D-02
 Coeff:      0.232D-02-0.216D-02-0.265D-01-0.373D-01-0.413D-01 0.136D+00
 Coeff:      0.283D+00 0.684D+00
 Gap=     0.084 Goal=   None    Shift=    0.000
 Gap=     0.019 Goal=   None    Shift=    0.000
 RMSDP=1.58D-08 MaxDP=1.32D-06 DE=-3.60D-10 OVMax= 1.01D-05

 Cycle  27  Pass 1  IDiag  1:
 RMSU=  1.26D-08    CP:  1.00D+00  9.05D-01  9.62D-01  1.11D+00  1.08D+00
                    CP:  1.13D+00
 E= -5186.75603677186     Delta-E=       -0.000000000175 Rises=F Damp=F
 DIIS: error= 1.84D-07 at cycle  27 NSaved=  20.
 NSaved=20 IEnMin=20 EnMin= -5186.75603677186     IErMin=20 ErrMin= 1.84D-07
 ErrMax= 1.84D-07  0.00D+00 EMaxC= 1.00D-01 BMatC= 1.23D-10 BMatP= 4.78D-10
 IDIUse=1 WtCom= 1.00D+00 WtEn= 0.00D+00
 Coeff-Com:  0.774D-06 0.134D-05-0.641D-06 0.777D-05 0.111D-04 0.199D-05
 Coeff-Com: -0.302D-05-0.123D-03-0.118D-03-0.119D-04 0.882D-03 0.190D-02
 Coeff-Com:  0.790D-03-0.110D-01-0.213D-01-0.447D-01-0.338D-02 0.107D+00
 Coeff-Com:  0.474D+00 0.496D+00
 Coeff:      0.774D-06 0.134D-05-0.641D-06 0.777D-05 0.111D-04 0.199D-05
 Coeff:     -0.302D-05-0.123D-03-0.118D-03-0.119D-04 0.882D-03 0.190D-02
 Coeff:      0.790D-03-0.110D-01-0.213D-01-0.447D-01-0.338D-02 0.107D+00
 Coeff:      0.474D+00 0.496D+00
 Gap=     0.084 Goal=   None    Shift=    0.000
 Gap=     0.019 Goal=   None    Shift=    0.000
 RMSDP=5.92D-09 MaxDP=5.16D-07 DE=-1.75D-10 OVMax= 1.72D-06

 SCF Done:  E(UM06L) =  -5186.75603677     A.U. after   27 cycles
            NFock= 27  Conv=0.59D-08     -V/T= 2.0016
 <Sx>= 0.0000 <Sy>= 0.0000 <Sz>= 7.0000 <S**2>=56.6280 S= 7.0418
 <L.S>=  0.00000000000    
 KE= 5.178249595349D+03 PE=-2.117812126677D+04 EE= 6.378168416606D+03
 Annihilation of the first spin contaminant:
 S**2 before annihilation    56.6280,   after    56.0052
 Leave Link  502 at Mon Feb  6 18:21:22 2023, MaxMem= 14763950080 cpu:           12366.5 elap:            6339.7
 (Enter /software/commercial/gaussian/g16/AVX2/g16/l508.exe)
 QCSCF skips out because SCF is already converged.
 Leave Link  508 at Mon Feb  6 18:21:24 2023, MaxMem= 14763950080 cpu:               0.0 elap:               0.4
 (Enter /software/commercial/gaussian/g16/AVX2/g16/l801.exe)
 DoSCS=F DFT=T ScalE2(SS,OS)=  1.000000  1.000000
 Range of M.O.s used for correlation:     1   853
 NBasis=   853 NAE=   130 NBE=   116 NFC=     0 NFV=     0
 NROrb=    853 NOA=   130 NOB=   116 NVA=   723 NVB=   737

 **** Warning!!: The largest alpha MO coefficient is  0.12337174D+02


 **** Warning!!: The smallest alpha delta epsilon is  0.84332182D-01


 **** Warning!!: The largest beta MO coefficient is  0.14440922D+02


 **** Warning!!: The smallest beta delta epsilon is  0.19441746D-01

 Leave Link  801 at Mon Feb  6 18:21:27 2023, MaxMem= 14763950080 cpu:               0.1 elap:               2.0
 (Enter /software/commercial/gaussian/g16/AVX2/g16/l1101.exe)
 Using compressed storage, NAtomX=    31.
 Will process     32 centers per pass.
 Leave Link 1101 at Mon Feb  6 18:21:38 2023, MaxMem= 14763950080 cpu:               3.9 elap:               9.8
 (Enter /software/commercial/gaussian/g16/AVX2/g16/l1102.exe)
 Symmetrizing basis deriv contribution to polar:
 IMax=3 JMax=2 DiffMx= 0.00D+00
 Leave Link 1102 at Mon Feb  6 18:21:40 2023, MaxMem= 14763950080 cpu:               0.2 elap:               1.4
 (Enter /software/commercial/gaussian/g16/AVX2/g16/l1110.exe)
 Forming Gx(P) for the SCF density, NAtomX=    31.
 Integral derivatives from FoFJK, PRISM(SPDF).
 Do as many integral derivatives as possible in FoFJK.
 G2DrvN: MDV=   14763946689.
 G2DrvN: will do    32 centers at a time, making    1 passes.
 Calling FoFCou, ICntrl=  3507 FMM=F I1Cent=   0 AccDes= 0.00D+00.
 FoFJK:  IHMeth= 1 ICntrl=    3507 DoSepK=F KAlg= 0 I1Cent=           0 FoldK=F
 IRaf=         0 NMat=       1 IRICut=       1 DoRegI=T DoRafI=F ISym2E= 0 IDoP0=0 IntGTp=1.
 FoFCou: FMM=F IPFlag=           0 FMFlag=      100000 FMFlg1=           0
         NFxFlg=           0 DoJE=F BraDBF=F KetDBF=F FulRan=T
         wScrn=  0.000000 ICntrl=      3507 IOpCl=  0 I1Cent=           0 NGrid=           0
         NMat0=    1 NMatS0=      1 NMatT0=    0 NMatD0=    1 NMtDS0=    0 NMtDT0=    0
 Symmetry not used in FoFCou.
 End of G2Drv F.D. properties file   721 does not exist.
 End of G2Drv F.D. properties file   722 does not exist.
 End of G2Drv F.D. properties file   788 does not exist.
 Leave Link 1110 at Mon Feb  6 20:27:20 2023, MaxMem= 14763950080 cpu:           15007.7 elap:            7539.4
 (Enter /software/commercial/gaussian/g16/AVX2/g16/l1002.exe)
 Minotr:  UHF open shell wavefunction.
          IDoAtm=1111111111111111111111111111111
          Direct CPHF calculation.
          Differentiating once with respect to electric field.
                with respect to dipole field.
          Differentiating once with respect to nuclear coordinates.
          Requested convergence is 1.0D-08 RMS, and 1.0D-07 maximum.
          Secondary convergence is 1.0D-12 RMS, and 1.0D-12 maximum.
          NewPWx=T KeepS1=F KeepF1=F KeepIn=T MapXYZ=F SortEE=F KeepMc=T.
         9519 words used for storage of precomputed grid.
 Two-electron integral symmetry not used.
          MDV=   14763950080 using IRadAn=       1.
          Solving linear equations simultaneously, MaxMat=     384.
 FoF2E skips out because all densities are zero.
 CalDSu exits because no D1Ps are significant.
 FoFJK:  IHMeth= 1 ICntrl=     500 DoSepK=F KAlg= 0 I1Cent=           0 FoldK=F
 IRaf= 770000000 NMat=      93 IRICut=       1 DoRegI=T DoRafI=F ISym2E= 0 IDoP0=3 IntGTp=3.
 FoFCou: FMM=F IPFlag=           0 FMFlag=      100000 FMFlg1=           0
         NFxFlg=           0 DoJE=F BraDBF=F KetDBF=F FulRan=T
         wScrn=  0.000000 ICntrl=       500 IOpCl=  0 I1Cent=           0 NGrid=           0
         NMat0=   93 NMatS0=     93 NMatT0=    0 NMatD0=   93 NMtDS0=    0 NMtDT0=    0
 Symmetry not used in FoFCou.
          There are    96 degrees of freedom in the 1st order CPHF.  IDoFFX=6 NUNeed=     3.
     93 vectors produced by pass  0 Test12= 1.87D-13 1.04D-09 XBig12= 7.75D+03 4.74D+01.
 AX will form    93 AO Fock derivatives at one time.
     93 vectors produced by pass  1 Test12= 1.87D-13 1.04D-09 XBig12= 6.40D+03 1.19D+01.
     93 vectors produced by pass  2 Test12= 1.87D-13 1.04D-09 XBig12= 2.01D+02 1.27D+00.
     93 vectors produced by pass  3 Test12= 1.87D-13 1.04D-09 XBig12= 7.48D+00 2.98D-01.
     93 vectors produced by pass  4 Test12= 1.87D-13 1.04D-09 XBig12= 1.70D-01 5.07D-02.
     93 vectors produced by pass  5 Test12= 1.87D-13 1.04D-09 XBig12= 3.53D-03 4.91D-03.
     93 vectors produced by pass  6 Test12= 1.87D-13 1.04D-09 XBig12= 4.21D-05 5.03D-04.
     88 vectors produced by pass  7 Test12= 1.87D-13 1.04D-09 XBig12= 3.73D-07 3.64D-05.
     31 vectors produced by pass  8 Test12= 1.87D-13 1.04D-09 XBig12= 2.51D-09 3.80D-06.
      3 vectors produced by pass  9 Test12= 1.87D-13 1.04D-09 XBig12= 1.97D-11 1.74D-07.
      3 vectors produced by pass 10 Test12= 1.87D-13 1.04D-09 XBig12= 1.97D-13 2.13D-08.
      1 vectors produced by pass 11 Test12= 1.87D-13 1.04D-09 XBig12= 1.89D-15 2.13D-09.
[...]
 277,0.00006410,0.00056205,-0.00130578,0.00055959,-0.00049413,0.0010675
 7,-0.00029812,0.00011384,-0.00005747,0.00005164,-0.00071917,0.00006070
 ,-0.00006696,-0.00098721,-0.00084160,-0.00092461,0.00140813,0.00022954
 ,0.00062998,-0.00011275,-0.00008810,-0.00008920,0.00480859,0.00768428,
 -0.00052612,0.04493190,0.14112276,-0.13222485,-0.01733331,0.00839751,-
 0.01454008,-0.16531120,-0.06071810,-0.16895625,0.00019829,0.00011289,0
 .00179812,-0.00113530,0.00351243,0.00022305,0.00072755,-0.00664892,0.0
 0080300,0.19143061,-0.17396253,0.50170159,0.00009924,0.00011017,-0.000
 07307,0.00024424,-0.00009417,0.00007054,-0.00018646,-0.00001748,0.0001
 1229,0.00001800,-0.00001841,-0.00000855,-0.00033581,0.00022904,0.00045
 497,-0.00002137,0.00015451,0.00002564,0.00010962,-0.00030477,-0.000069
 81,-0.00005812,0.00005034,0.00002553,0.00029975,0.00062382,0.00001573,
 0.00009350,0.00043853,0.00014243,-0.00060075,0.00046804,-0.00055675,0.
 00013761,-0.00081614,0.00002835,-0.00005293,0.00009480,-0.00002409,0.0
 0028701,-0.00037440,-0.00003838,0.00029473,0.00014053,0.00019733,-0.00
 048954,0.00009170,0.00000023,0.00002945,0.00000911,-0.00000715,0.00003
 923,-0.00010414,-0.00154069,0.01220383,-0.01943082,0.00877121,0.002327
 09,-0.00218101,0.00100508,-0.02224162,0.00200451,-0.03700730,0.0006678
 1,0.00021247,-0.00126506,0.00011339,-0.00061030,-0.00027179,0.00050494
 ,0.00124094,0.00041817,-0.08498656,0.05745294,-0.06115845,0.09251736,0
 .00036602,0.00007823,-0.00019819,0.00062804,-0.00039640,0.00038090,-0.
 00067324,0.00019558,0.00017896,0.00005783,-0.00007342,-0.00000656,-0.0
 0033959,0.00028395,0.00010124,0.00012426,0.00028609,-0.00017824,0.0000
 6897,-0.00044467,0.00007495,-0.00000102,0.00004054,0.00000566,0.000414
 71,0.00056077,0.00084055,0.00010136,0.00025816,0.00011235,-0.00045210,
 0.00032866,-0.00024530,0.00001042,-0.00049739,-0.00003238,-0.00000683,
 0.00006663,-0.00002905,0.00040262,-0.00040321,-0.00031987,0.00026050,0
 .00006235,0.00001528,-0.00049063,0.00010158,0.00012125,0.00004169,-0.0
 0004117,-0.00003551,-0.00106405,0.00234228,-0.00208919,-0.00356576,-0.
 03091647,0.03498276,-0.00042836,-0.00012893,0.00084061,-0.01446393,0.0
 1209810,-0.00820699,0.00070899,0.00002242,-0.00009287,-0.00016436,-0.0
 0045648,0.00012198,0.00084566,0.00079864,-0.00014722,0.05783935,-0.110
 07420,0.08514763,-0.03880144,0.12668424,0.00015843,0.00014350,-0.00015
 813,0.00009584,-0.00000412,0.00005119,-0.00021728,0.00000210,0.0001175
 8,0.00000932,-0.00000401,-0.00002452,-0.00069119,0.00033389,0.00036343
 ,-0.00006655,0.00017172,0.00000338,0.00013723,-0.00036856,-0.00010159,
 -0.00004659,0.00004715,0.00006203,0.00026894,-0.00005681,0.00023076,-0
 .00007272,0.00010880,-0.00000365,-0.00039250,0.00017905,-0.00011946,0.
 00010018,-0.00027962,0.00005516,-0.00001021,0.00004176,-0.00004655,-0.
 00012309,0.00045785,0.00009122,-0.00008026,0.00011276,0.00005952,0.000
 18953,-0.00017194,-0.00017870,-0.00000131,0.00001192,0.00004435,-0.000
 78348,-0.00048876,0.00173482,-0.00317102,0.02008163,0.00114038,0.00097
 391,-0.00017506,0.00180199,-0.02613739,0.00579971,-0.00924941,0.000544
 44,-0.00017597,-0.00027251,0.00025359,-0.00050228,0.00004607,-0.000478
 84,0.00099448,-0.00070697,-0.06069149,0.08519642,-0.18434688,0.0905638
 0,-0.11135479,0.18951563,-0.00640302,-0.00193644,0.00391938,-0.0061949
 3,0.00693436,-0.00110652,0.01013073,-0.00302348,-0.00171829,-0.0005124
 5,0.00022141,-0.00009080,0.00479700,-0.00368236,-0.00448224,-0.0009844
 4,-0.00455022,0.00166061,-0.00203805,0.00752105,-0.00006490,0.00042424
 ,-0.00071177,-0.00012851,-0.19017333,-0.14928882,-0.06547106,-0.001995
 96,-0.00724242,-0.00221537,0.00788673,-0.00759943,0.00166368,-0.003002
 37,0.01154743,-0.00166173,0.00010501,-0.00053045,0.00032220,-0.0048195
 2,0.00229266,0.00274761,-0.00331170,-0.00192929,-0.00126813,0.00575383
 ,-0.00024859,0.00020515,-0.00047389,0.00029893,-0.00000487,0.00934608,
 -0.02220118,-0.02310553,-0.00744552,-0.01057758,0.00913098,-0.02301933
 ,0.02835491,0.04520272,-0.01410468,-0.00534432,-0.01462158,-0.38357511
 ,-0.10359010,0.09619580,0.00103325,0.01075848,0.00013743,-0.00935315,-
 0.01585473,-0.00028768,0.01736667,0.01589543,0.00152468,-0.00100936,-0
 .00075824,-0.00044917,0.68496830,-0.00459602,-0.00073136,0.00253144,-0
 .00404866,0.00566930,-0.00060985,0.00744087,-0.00335084,-0.00057159,-0
 .00035766,0.00015291,-0.00020457,0.00352928,-0.00181431,-0.00290883,-0
 .00113299,-0.00344538,0.00160093,-0.00127594,0.00546976,-0.00016189,0.
 00017702,-0.00050181,-0.00005105,-0.17838070,-0.35622004,-0.16062563,-
 0.00212314,-0.00534562,-0.00178476,0.00583223,-0.00611003,0.00125312,-
 0.00090342,0.00831669,-0.00075295,0.00001437,-0.00041321,0.00017188,-0
 .00249810,0.00139399,0.00177188,-0.00175610,-0.00077200,-0.00026444,0.
 00312369,-0.00052140,-0.00033218,-0.00021368,0.00022545,0.00004029,0.0
 0274517,-0.02450893,-0.02220864,-0.00489614,-0.00722606,0.00762358,0.0
 0001976,0.01631103,0.01590410,-0.00922603,-0.00433465,-0.00810366,-0.0
 7162102,-0.11231571,-0.00070852,0.00257347,0.00547680,-0.00052178,-0.0
 0854674,-0.00650990,0.00272246,0.01094629,0.01196185,-0.00048190,-0.00
 052660,-0.00064110,-0.00016109,0.19427341,0.58978543,-0.00037480,0.000
 45360,-0.00020376,-0.00065314,0.00164123,-0.00056856,0.00071699,-0.000
 72800,0.00064233,-0.00004617,0.00010240,-0.00017028,0.00027447,0.00066
 440,0.00005831,-0.00029168,-0.00014548,0.00029072,0.00007894,0.0001207
 5,-0.00010327,-0.00008248,-0.00003067,0.00001306,-0.09228781,-0.176849
 83,-0.17595704,-0.00038549,0.00005889,-0.00044653,-0.00103333,0.000268
 24,-0.00035734,0.00055940,-0.00031436,0.00081959,-0.00009365,-0.000020
 29,-0.00009704,0.00026457,0.00018664,-0.00002726,0.00008197,0.00033510
 ,0.00029898,-0.00010037,-0.00037599,-0.00039276,0.00005837,0.00000874,
 0.00004849,-0.00179742,-0.00980350,-0.00629447,0.00022416,0.00078928,0
 .00109035,0.01724948,-0.00308265,-0.00976404,-0.00134285,-0.00017955,0
 .00148767,0.12960118,0.01973712,-0.12677533,0.00111502,-0.00103799,0.0
 0007971,-0.00276175,0.00277644,0.00134970,-0.00117215,0.00024849,-0.00
 384639,0.00015830,-0.00016794,0.00002104,-0.11611023,0.24518818,0.5003
 3226,0.00030056,0.00015362,-0.00024944,0.00030115,-0.00032083,0.000048
 89,-0.00050032,0.00011567,0.00016677,0.00003636,-0.00000899,-0.0000057
 8,-0.00074129,0.00022974,0.00062200,0.00005459,0.00051738,-0.00020463,
 0.00029571,-0.00087391,-0.00001482,-0.00005134,0.00008904,0.00002909,0
 .00958315,-0.02153492,-0.01383354,0.00004296,0.00034979,0.00001907,-0.
 00064823,0.00056502,-0.00047531,0.00012484,-0.00059721,0.00013140,-0.0
 0005458,0.00007069,-0.00004866,0.00037570,-0.00015057,-0.00016762,0.00
 019444,0.00014234,0.00008204,-0.00034702,-0.00003712,-0.00006006,0.000
 03702,-0.00001828,0.00000014,-0.00019008,0.00064831,0.00136952,0.00031
 473,0.00071062,-0.00023929,0.00122249,-0.00194187,-0.00162974,0.000979
 35,0.00026155,0.00118799,-0.03124866,0.00514950,0.03572690,0.00008661,
 -0.00080317,0.00015101,0.00073725,0.00131753,-0.00032586,-0.00093540,-
 0.00082222,-0.00021230,0.00013995,0.00001914,0.00003550,-0.08577535,0.
 05983871,0.06802500,0.10600132,0.00009958,0.00001082,0.00001274,0.0002
 2452,-0.00015695,0.00027623,-0.00020463,0.00007118,-0.00003210,0.00002
 623,-0.00004896,0.00001435,-0.00033960,0.00009053,0.00014176,0.0000628
 6,0.00016482,-0.00010276,0.00002856,-0.00030537,0.00005219,0.00000143,
 0.00004000,0.00001898,-0.00457722,-0.02224477,-0.03511922,0.00013473,0
 .00027095,0.00015740,-0.00032594,0.00030077,-0.00001497,0.00003671,-0.
 00041664,0.00000222,0.00001257,0.00002681,-0.00000954,0.00045757,-0.00
 029377,-0.00028056,0.00026851,0.00006849,0.00009257,-0.00051367,0.0000
 7971,-0.00000450,0.00004717,-0.00003588,-0.00001320,-0.00081150,0.0029
 7543,0.00085130,0.00035534,0.00033861,-0.00089535,-0.00086695,0.000528
 98,-0.00094658,0.00056817,0.00002588,-0.00018857,-0.01095075,0.0135183
 9,0.00279626,-0.00014681,-0.00029084,-0.00017518,0.00071988,0.00040059
 ,0.00024203,-0.00050072,-0.00071339,0.00015013,-0.00006104,0.00013393,
 0.00003164,0.05972357,-0.11210143,-0.08049020,-0.04301160,0.11778106,0
 .00003649,-0.00012115,0.00005475,0.00012094,-0.00038512,0.00016370,-0.
 00013631,0.00012772,-0.00009520,0.00002265,-0.00002769,0.00004425,0.00
 017644,-0.00006518,-0.00002341,0.00010353,0.00002789,-0.00005293,-0.00
 005194,0.00003357,0.00003579,0.00000642,-0.00001563,-0.00003071,0.0006
 1915,-0.02616801,-0.00537316,0.00003283,-0.00019453,0.00000394,0.00067
 022,-0.00036920,0.00017367,-0.00013114,0.00038170,-0.00017302,0.000021
 94,-0.00002271,0.00005778,0.00010093,-0.00011439,-0.00005452,-0.000043
 93,-0.00009307,-0.00008530,0.00001322,0.00003365,0.00004426,0.00000463
 ,-0.00001196,-0.00002396,0.00048150,0.00115383,0.00176762,-0.00006449,
 0.00032317,-0.00009151,-0.00045509,-0.00032794,0.00205188,-0.00019840,
 0.00033085,0.00017496,0.01953083,-0.00772648,-0.00130276,-0.00019054,0
 .00031137,0.00006728,0.00068965,-0.00062075,-0.00070463,-0.00005256,-0
 .00022789,0.00003901,0.00001907,-0.00000479,-0.00007137,0.06908219,-0.
 07956271,-0.18217714,-0.09008927,0.11348306,0.18565804,0.00263859,-0.0
 0049951,-0.00097807,0.00266736,-0.00267218,0.00257334,-0.00347547,0.00
 283901,-0.00106084,0.00014294,-0.00013379,0.00019238,0.00033207,0.0003
 2321,-0.00007653,0.00059207,0.00048145,-0.00056884,-0.00026276,-0.0006
 1757,0.00042318,0.00004313,0.00003213,-0.00009427,0.00227883,0.0057321
 5,0.00288424,0.00046473,0.00038149,0.00041701,0.00045423,0.00030238,0.
 00015177,-0.00034996,-0.00041077,-0.00036242,0.00005148,0.00002755,0.0
 0007859,0.00316409,-0.00336910,-0.00312758,0.00322429,0.00003569,0.000
 50396,-0.00440341,0.00241769,0.00200599,0.00020798,-0.00020169,-0.0002
 2767,-0.06691095,-0.00792578,0.00026482,0.00225430,0.00641210,-0.00414
 077,-0.00117046,-0.00122886,0.00001015,0.00182766,0.00193430,0.0010346
 4,0.00208694,0.00135584,-0.00028596,-0.00239666,0.00006594,-0.00008179
 ,0.00479100,-0.00026032,0.00021223,-0.00161045,-0.00480729,0.00066806,
 0.00018260,0.00064234,-0.00042532,-0.00199607,-0.00326396,-0.00140895,
 0.00021873,0.00042978,0.00043977,0.94970928,-0.00234064,-0.00050986,0.
 00162693,-0.00389040,-0.00029231,0.00123636,0.00215052,-0.00076125,-0.
 00045356,0.00011263,-0.00017958,0.00047948,0.00003450,0.00121200,-0.00
 067914,0.00149608,0.00197774,-0.00185837,-0.00040898,-0.00230648,0.001
 07362,0.00019899,0.00024743,-0.00022685,-0.00474336,-0.00068651,0.0009
 0019,0.00163103,0.00207535,0.00167241,0.00033356,0.00127054,0.00063747
 ,-0.00067118,-0.00218219,-0.00078181,0.00021753,0.00025473,0.00021786,
 -0.00427282,0.00079472,-0.00012258,-0.00416619,-0.00094180,-0.00180202
 ,0.00381859,-0.00097031,-0.00050478,0.00000447,-0.00022118,-0.00042600
 ,0.06310793,0.00982111,-0.00036417,-0.00645770,-0.00056048,-0.00183241
 ,0.00016512,-0.00707919,-0.00001536,-0.00338645,0.00016338,-0.00292459
 ,-0.00358468,0.00003507,0.00200268,0.00100601,-0.00256045,0.00089917,-
 0.00281958,0.00578535,-0.00011939,0.00312621,0.00174275,0.00126236,0.0
 0004664,0.00053492,-0.00038813,0.00277838,0.00152588,-0.00013284,0.000
 06538,0.00042660,0.00035012,0.20160929,-0.01486354,0.00076997,0.000032
 84,-0.00073313,0.00024957,-0.00047900,0.00055491,-0.00086253,0.0006319
 4,-0.00001573,0.00000522,0.00009250,-0.00004621,0.00000695,-0.00022567
 ,0.00012601,-0.00023520,-0.00031638,0.00031608,0.00006326,0.00038732,-
 0.00017198,-0.00003617,-0.00004120,0.00003593,0.00127718,-0.00037608,-
 0.00069829,-0.00028493,-0.00034657,-0.00028212,-0.00005727,-0.00018204
 ,-0.00009653,0.00011657,0.00035906,0.00012912,-0.00003381,-0.00004500,
 -0.00003939,0.00146784,0.00021560,0.00053797,0.00051811,0.00016895,-0.
 00004621,-0.00031524,-0.00008616,-0.00003866,-0.00001697,-0.00001705,0
 .00010903,-0.01432593,-0.00213899,0.00055095,0.00087683,0.00049213,0.0
 0012340,0.00008319,0.00115244,-0.00024996,0.00083094,0.00000456,0.0007
 3133,0.00029985,0.00004605,-0.00017451,-0.00023793,0.00044611,0.000355
 61,0.00068239,-0.00102715,-0.00024230,-0.00110372,-0.00057597,-0.00044
 824,0.00002982,-0.00001318,0.00005512,0.00010188,-0.00006536,-0.000008
 00,-0.00006709,-0.00015503,-0.00007411,0.00253986,0.01185128,0.0001494
 9,-0.00095556,0.00044481,0.00010185,-0.00125250,0.00231071,-0.00261824
 ,0.00182701,-0.00146144,0.00048381,-0.00019971,0.00029867,-0.00030465,
 -0.00014925,-0.00079086,0.00037252,-0.00107179,-0.00123211,0.00117348,
 0.00032897,0.00149006,-0.00074657,-0.00011633,-0.00012977,0.00015968,0
 .00099739,-0.00347489,-0.00188051,-0.00107042,-0.00117743,-0.00096566,
 -0.00038082,-0.00080350,-0.00036746,0.00051591,0.00127819,0.00057209,-
 0.00012459,-0.00012884,-0.00015069,-0.00115045,0.00231071,0.00252508,-
 0.00053202,0.00034917,0.00037896,0.00152549,-0.00105242,-0.00093525,-0
 .00020054,0.00029134,0.00035418,0.00827656,0.00639780,-0.00118891,0.00
 181470,-0.00309687,0.00273514,0.00023742,0.00441407,-0.00021408,0.0011
 0603,-0.00088208,0.00128649,0.00069767,-0.00070952,-0.00089452,0.00128
 968,0.00116713,-0.00034769,-0.00252765,-0.00306168,0.00003522,-0.00094
 196,0.00091697,-0.00090186,-0.00011719,-0.00068306,0.00042044,-0.00020
 931,0.00082748,0.00067422,-0.00019578,-0.00048936,-0.00044833,-1.08669
 957,-0.12718454,-0.02261029,1.20167985,0.00018751,0.00020306,-0.000233
 76,0.00042651,0.00076497,-0.00114211,0.00010307,-0.00025079,0.00016179
 ,-0.00008692,0.00011655,-0.00018060,-0.00005657,-0.00042887,0.00023419
 ,-0.00056575,-0.00071241,0.00065812,0.00016836,0.00082131,-0.00039967,
 -0.00006902,-0.00008272,0.00008688,0.00126031,-0.00059593,-0.00067609,
 -0.00060609,-0.00072836,-0.00058260,-0.00016269,-0.00044963,-0.0002212
 9,0.00026350,0.00076780,0.00029825,-0.00007564,-0.00008473,-0.00008287
 ,0.00060999,0.00039291,0.00067671,0.00074248,0.00025951,0.00044043,-0.
 00038505,-0.00002113,-0.00008154,-0.00005362,0.00011683,0.00017731,-0.
 01226134,-0.00078369,-0.00000529,0.00175472,-0.00073499,0.00116707,0.0
 0010845,0.00247092,0.00000482,0.00084405,-0.00027953,0.00084761,0.0009
 3436,-0.00014987,-0.00064170,0.00014368,0.00092315,-0.00030574,0.00010
 301,-0.00180977,0.00002111,-0.00079426,-0.00002452,-0.00044449,-0.0000
 3310,-0.00028415,0.00016856,-0.00065907,-0.00015979,0.00015776,-0.0000
 5494,-0.00020855,-0.00016612,-0.07720889,-0.02985531,0.00204397,0.0594
 4686,0.02563091,-0.00017944,0.00002109,0.00019435,-0.00009958,0.000186
 85,-0.00028705,0.00016800,-0.00019543,0.00001052,-0.00000478,-0.000020
 75,0.00000696,-0.00000599,0.00006195,-0.00004422,0.00005456,0.00007806
 ,-0.00007762,-0.00001132,-0.00009501,0.00004059,0.00000996,0.00000829,
 -0.00000789,-0.00002196,0.00054500,0.00041769,0.00006284,0.00006600,0.
 00005604,0.00002720,0.00002631,0.00000766,-0.00003361,-0.00006376,-0.0
 0003132,0.00000570,0.00001060,0.00000981,-0.00022421,-0.00022697,-0.00
 042369,-0.00001157,-0.00005256,0.00006739,-0.00003252,0.00011426,0.000
 05726,0.00001908,-0.00000294,-0.00003681,0.00259238,0.00051120,0.00057
 396,-0.00033036,-0.00046374,0.00005430,-0.00004649,-0.00023438,0.00034
 643,-0.00049135,-0.00016213,-0.00039162,0.00036796,0.00013460,-0.00014
 452,0.00002263,-0.00010844,-0.00013218,-0.00012817,0.00017692,0.000051
 30,0.00057319,0.00057092,0.00012171,-0.00001967,-0.00000106,0.00000052
 ,-0.00048288,-0.00045737,-0.00013725,0.00002766,0.00005302,0.00003079,
 -0.03199682,-0.00010910,-0.00243053,0.04020926,-0.00212217,0.00283597,
 -0.00502281,0.00057759,0.00250205,-0.00974429,0.00680372,-0.00705257,0
 .00621508,-0.00466379,0.00036568,-0.00038597,0.00041350,0.00001948,-0.
 00067043,0.00076774,-0.00017297,0.00034936,0.00121578,-0.00085921,0.00
 022177,-0.00144801,0.00024380,0.00008120,0.00017589,-0.00003539,-0.005
 78467,-0.00963017,-0.00500597,0.00059009,0.00138237,0.00084650,-0.0005
 6420,0.00081263,0.00006923,0.00008304,-0.00155538,-0.00004699,0.000085
 12,0.00018923,0.00004015,-0.00959606,0.00834760,0.00693721,-0.00670823
 ,-0.00035526,-0.00181314,0.00771581,-0.00359187,-0.00234354,-0.0005558
 1,0.00028335,0.00018062,-0.06142072,-0.00919713,0.00041097,-0.00733299
 ,-0.01011945,0.00653600,0.00212659,-0.00317205,0.00007540,-0.00446774,
 -0.00151978,-0.00309747,-0.00451215,-0.00118203,0.00166067,0.00474621,
 -0.00328463,0.00063470,-0.01068539,0.00351142,-0.00004046,0.00479787,0
 .00577862,0.00105122,-0.00020964,-0.00063929,0.00008725,0.00458570,0.0
 0402515,0.00086019,-0.00035885,-0.00039739,-0.00031041,0.19194348,-0.1
 1797634,0.03026766,-0.12240125,0.02597608,-0.01001970,0.02687987,0.003
 37642,0.00066326,-0.00250282,0.00767124,-0.00108228,0.00209391,-0.0038
 3419,0.00159125,0.00122575,-0.00004117,-0.00006745,-0.00039915,-0.0004
 2084,-0.00049919,0.00056015,-0.00086882,-0.00074299,0.00117522,0.00046
 260,0.00091259,-0.00072731,-0.00014413,-0.00013120,0.00015148,-0.00093
 817,-0.00440998,-0.00431495,-0.00079075,-0.00083668,-0.00103883,-0.000
 65681,-0.00047157,-0.00065556,0.00059942,0.00069828,0.00059352,-0.0001
 6185,-0.00013015,-0.00013690,0.00765679,-0.00205380,-0.00282674,0.0048
 0540,0.00093356,0.00202319,-0.00454161,0.00135661,0.00047747,0.0000514
 3,0.00002434,0.00026476,-0.06285952,-0.02090704,0.00122308,-0.00026882
 ,-0.00417989,0.00559406,0.00101601,0.00369412,0.00004447,0.00066908,-0
 .00080461,0.00072823,0.00052383,-0.00074852,-0.00069069,-0.00153104,-0
 .00070413,-0.00055381,0.00150302,-0.00315632,-0.00000687,-0.00080696,0
 .00123399,-0.00046258,0.00000575,-0.00051948,0.00024820,-0.00087154,0.
 00073449,0.00062202,-0.00006840,-0.00043699,-0.00033162,-0.12242266,0.
 03610286,-0.01183390,0.06441440,0.00517682,0.00175072,0.10847190,-0.01
 123987,-0.00254419,-0.00000720,0.00194106,-0.00487530,0.00333512,-0.00
 297773,0.00273114,-0.00177237,-0.00032936,-0.00008738,0.00003639,-0.00
 001410,0.00004661,0.00016064,0.00004178,0.00021943,0.00019272,-0.00015
 380,-0.00010092,-0.00029769,0.00014859,0.00001103,0.00002641,-0.000035
 27,-0.00389811,-0.00442308,-0.00142581,0.00019562,0.00025240,0.0003552
 9,0.00005014,0.00012184,0.00022403,-0.00006659,-0.00025041,-0.00010954
 ,0.00004832,0.00003557,0.00002462,0.00228875,-0.00286783,-0.00212620,0
 .00145641,0.00008321,0.00064856,-0.00152381,0.00087172,0.00083227,0.00
 004964,-0.00000478,-0.00015974,0.01120959,0.00256455,-0.00664942,0.003
 66269,0.00558391,-0.00340455,-0.00017804,-0.00086295,-0.00164274,0.001
 46846,0.00114021,0.00092337,-0.00229673,-0.00074247,0.00087814,0.00022
 646,-0.00009051,-0.00189552,-0.00042512,0.00074853,0.00042039,-0.00058
 316,-0.00219384,0.00004020,0.00000228,0.00019901,-0.00011446,0.0013751
 7,0.00173090,0.00079423,0.00000044,0.00005189,-0.00003400,0.03043583,-
 0.01146883,0.00202093,-0.01690771,0.00014145,-0.00073852,-0.02199095,0
 .00770551,0.01251732\\0.00000111,-0.00000032,-0.00000091,0.00000121,0.
 00000042,0.00000159,0.,0.00000101,0.00000042,0.00000057,-0.00000007,0.
 00000055,-0.00000095,-0.00000089,-0.00000264,-0.00000167,-0.00000104,-
 0.00000293,-0.00000106,-0.00000183,-0.00000312,-0.00000100,-0.00000056
 ,-0.00000127,0.00000192,0.00000098,0.00000181,0.00000103,-0.00000095,-
 0.00000311,0.00000169,-0.00000083,-0.00000304,0.00000225,-0.00000084,-
 0.00000243,0.00000082,-0.00000053,-0.00000165,-0.00000204,0.00000025,0
 .00000143,-0.00000246,-0.00000052,-0.00000061,-0.00000264,-0.00000012,
 0.00000059,-0.00000140,-0.00000006,0.00000023,0.00000006,0.00000113,0.
 00000322,-0.00000084,0.00000134,0.00000160,0.00000107,-0.00000091,-0.0
 0000229,-0.00000028,-0.00000005,0.,0.00000256,0.00000013,-0.00000034,-
 0.00000103,-0.00000134,-0.00000295,0.00000011,0.00000009,-0.00000040,-
 0.00000159,-0.00000049,0.00000077,-0.00000052,0.00000006,0.00000069,0.
 00000251,0.00000049,0.00000054,0.00000121,0.00000038,0.00000064,-0.000
 00139,0.00000139,0.00000452,0.00000159,0.00000203,0.00000541,-0.000000
 85,0.00000164,0.00000372\\\@
 The archive entry for this job was punched.


 MUD THROWN IS GROUND LOST -- FROM A TEA BAG
 Job cpu time:       1 days  4 hours 50 minutes 33.8 seconds.
 Elapsed time:       0 days 14 hours 35 minutes 53.4 seconds.
 File lengths (MBytes):  RWF=   4169 Int=      0 D2E=      0 Chk=     74 Scr=      1
 Normal termination of Gaussian 16 at Tue Feb  7 07:11:25 2023.
