 Entering Gaussian System, Link 0=g16
 Input=FeFeFe-TS1-0xH2O-freq.gjf
 Output=FeFeFe-TS1-0xH2O-freq.log
 AtFile(1): /zfs/curium/svicchi/00-MOF/01-Gaussian/zw-basis-set/def2-TZVP/H.gbs
            !----------------------------------------------------------------------
            ! Basis Set Exchange
            ! Version v0.9
            ! https://www.basissetexchange.org
            !----------------------------------------------------------------------
            !   Basis set: def2-TZVP
            ! Description: def2-TZVP
            !        Role: orbital
            !     Version: 1  (Data from Turbomole 7.3)
            !----------------------------------------------------------------------
            H     0
            S    3   1.00
                 34.0613410              0.60251978D-02
                  5.1235746              0.45021094D-01
                  1.1646626              0.20189726
            S    1   1.00
                  0.32723041             1.0000000
            S    1   1.00
                  0.10307241             1.0000000
            P    1   1.00
                  0.8000000              1.0000000
 AtFile(1): /zfs/curium/svicchi/00-MOF/01-Gaussian/zw-basis-set/def2-TZVP/O.gbs
            !----------------------------------------------------------------------
            ! Basis Set Exchange
            ! Version v0.9
            ! https://www.basissetexchange.org
            !----------------------------------------------------------------------
            !   Basis set: def2-TZVP
            ! Description: def2-TZVP
            !        Role: orbital
            !     Version: 1  (Data from Turbomole 7.3)
            !----------------------------------------------------------------------
            O     0
            S    6   1.00
              27032.3826310              0.21726302465D-03
               4052.3871392              0.16838662199D-02
                922.32722710             0.87395616265D-02
                261.24070989             0.35239968808D-01
                 85.354641351            0.11153519115
                 31.035035245            0.25588953961
            S    2   1.00
                 12.260860728            0.39768730901
                  4.9987076005           0.24627849430
            S    1   1.00
                  1.1703108158           1.0000000
            S    1   1.00
                  0.46474740994          1.0000000
            S    1   1.00
                  0.18504536357          1.0000000
            P    4   1.00
                 63.274954801            0.60685103418D-02
                 14.627049379            0.41912575824D-01
                  4.4501223456           0.16153841088
                  1.5275799647           0.35706951311
            P    1   1.00
                  0.52935117943           .44794207502
            P    1   1.00
                  0.17478421270           .24446069663
            D    1   1.00
                  2.31400000             1.0000000
            D    1   1.00
                  0.64500000             1.0000000
            F    1   1.00
                  1.42800000             1.0000000
 AtFile(1): /zfs/curium/svicchi/00-MOF/01-Gaussian/zw-basis-set/def2-TZVP/C.gbs
            !----------------------------------------------------------------------
            ! Basis Set Exchange
            ! Version v0.9
            ! https://www.basissetexchange.org
            !----------------------------------------------------------------------
            !   Basis set: def2-TZVP
            ! Description: def2-TZVP
            !        Role: orbital
            !     Version: 1  (Data from Turbomole 7.3)
            !----------------------------------------------------------------------
            C     0
            S    6   1.00
              13575.3496820              0.22245814352D-03
               2035.2333680              0.17232738252D-02
                463.22562359             0.89255715314D-02
                131.20019598             0.35727984502D-01
                 42.853015891            0.11076259931
                 15.584185766            0.24295627626
            S    2   1.00
                  6.2067138508           0.41440263448
                  2.5764896527           0.23744968655
            S    1   1.00
                  0.57696339419          1.0000000
            S    1   1.00
                  0.22972831358          1.0000000
            S    1   1.00
                  0.95164440028D-01      1.0000000
            P    4   1.00
                 34.697232244            0.53333657805D-02
                  7.9582622826           0.35864109092D-01
                  2.3780826883           0.14215873329
                  0.81433208183          0.34270471845
            P    1   1.00
                  0.28887547253           .46445822433
            P    1   1.00
                  0.10056823671           .24955789874
            D    1   1.00
                  1.09700000             1.0000000
            D    1   1.00
                  0.31800000             1.0000000
            F    1   1.00
                  0.76100000             1.0000000
 AtFile(1): /zfs/curium/svicchi/00-MOF/01-Gaussian/zw-basis-set/def2-TZVP/Fe.gbs
            !----------------------------------------------------------------------
            ! Basis Set Exchange
            ! Version v0.9
            ! https://www.basissetexchange.org
            !----------------------------------------------------------------------
            !   Basis set: def2-TZVP
            ! Description: def2-TZVP
            !        Role: orbital
            !     Version: 1  (Data from Turbomole 7.3)
            !----------------------------------------------------------------------
            Fe     0
            S    8   1.00
             300784.8463700              0.22806273096D-03
              45088.9705570              0.17681788761D-02
              10262.5163170              0.91927083490D-02
               2905.2897293              0.37355495807D-01
                946.11487137             0.12151108426
                339.87832894             0.28818881468
                131.94425588             0.41126612677
                 52.111494077            0.21518583573
            S    4   1.00
                329.48839267            -0.24745216477D-01
                101.92332739            -0.11683089050
                 16.240462745            0.55293621136
                  6.8840675801           0.53601640182
            S    2   1.00
                 10.470693782           -0.22912708577
                  1.7360039648           0.71159319984
            S    1   1.00
                  0.72577288979          1.0000000
            S    1   1.00
                  0.11595528203          1.0000000
            S    1   1.00
                  0.41968227746D-01      1.0000000
            P    6   1.00
               1585.3959970              0.23793960179D-02
                375.38006499             0.19253154755D-01
                120.31816501             0.90021836536D-01
                 44.788749031            0.25798172356
                 17.829278584            0.41492649744
                  7.2247153786           0.24207474784
            P    3   1.00
                 28.143219756           -0.29041755152D-01
                  3.8743241412           0.55312260343
                  1.5410752281           0.96771136842
            P    1   1.00
                  0.58285615250          1.0000000
            P    1   1.00
                  0.1349150              1.0000000
            D    4   1.00
                 61.996675034            0.11971972255D-01
                 17.873732552            0.73210135410D-01
                  6.2744782934           0.23103094314
                  2.3552337175           0.39910706494
            D    1   1.00
                  0.85432239901           .41391589765
            D    1   1.00
                  0.27869254413           .21909269782
            D    1   1.00
                  0.0910000              1.0000000
            F    1   1.00
                  1.5980000              1.0000000
 AtFile(1): /zfs/curium/svicchi/00-MOF/01-Gaussian/zw-basis-set/def2-TZVP/N.gbs
            !----------------------------------------------------------------------
            ! Basis Set Exchange
            ! Version v0.9
            ! https://www.basissetexchange.org
            !----------------------------------------------------------------------
            !   Basis set: def2-TZVP
            ! Description: def2-TZVP
            !        Role: orbital
            !     Version: 1  (Data from Turbomole 7.3)
            !----------------------------------------------------------------------
            N     0
            S    6   1.00
              19730.8006470              0.21887984991D-03
               2957.8958745              0.16960708803D-02
                673.22133595             0.87954603538D-02
                190.68249494             0.35359382605D-01
                 62.295441898            0.11095789217
                 22.654161182            0.24982972552
            S    2   1.00
                  8.9791477428           0.40623896148
                  3.6863002370           0.24338217176
            S    1   1.00
                  0.84660076805          1.0000000
            S    1   1.00
                  0.33647133771          1.0000000
            S    1   1.00
                  0.13647653675          1.0000000
            P    4   1.00
                 49.200380510            0.55552416751D-02
                 11.346790537            0.38052379723D-01
                  3.4273972411           0.14953671029
                  1.1785525134           0.34949305230
            P    1   1.00
                  0.41642204972           .45843153697
            P    1   1.00
                  0.14260826011           .24428771672
            D    1   1.00
                  1.65400000             1.0000000
            D    1   1.00
                  0.46900000             1.0000000
            F    1   1.00
                  1.09300000             1.0000000
 Initial command:
 /software/commercial/gaussian/g16/AVX2/g16/l1.exe "/scratch1/svicchi/G09-103703.pbs02/Gau-4082067.inp" -scrdir="/scratch1/svicchi/G09-103703.pbs02/"
 Entering Link 1 = /software/commercial/gaussian/g16/AVX2/g16/l1.exe PID=   4082068.
  
 Copyright (c) 1988-2021, Gaussian, Inc.  All Rights Reserved.
  
 This is part of the Gaussian(R) 16 program.  It is based on
 the Gaussian(R) 09 system (copyright 2009, Gaussian, Inc.),
 the Gaussian(R) 03 system (copyright 2003, Gaussian, Inc.),
 the Gaussian(R) 98 system (copyright 1998, Gaussian, Inc.),
 the Gaussian(R) 94 system (copyright 1995, Gaussian, Inc.),
 the Gaussian 92(TM) system (copyright 1992, Gaussian, Inc.),
 the Gaussian 90(TM) system (copyright 1990, Gaussian, Inc.),
 the Gaussian 88(TM) system (copyright 1988, Gaussian, Inc.),
 the Gaussian 86(TM) system (copyright 1986, Carnegie Mellon
 University), and the Gaussian 82(TM) system (copyright 1983,
 Carnegie Mellon University). Gaussian is a federally registered
 trademark of Gaussian, Inc.
  
 This software contains proprietary and confidential information,
 including trade secrets, belonging to Gaussian, Inc.
  
 This software is provided under written license and may be
 used, copied, transmitted, or stored only in accord with that
 written license.
  
 The following legend is applicable only to US Government
 contracts under FAR:
  
                    RESTRICTED RIGHTS LEGEND
  
 Use, reproduction and disclosure by the US Government is
 subject to restrictions as set forth in subparagraphs (a)
 and (c) of the Commercial Computer Software - Restricted
 Rights clause in FAR 52.227-19.
  
 Gaussian, Inc.
 340 Quinnipiac St., Bldg. 40, Wallingford CT 06492
  
  
 ---------------------------------------------------------------
 Warning -- This program may not be used in any manner that
 competes with the business of Gaussian, Inc. or will provide
 assistance to any competitor of Gaussian, Inc.  The licensee
 of this program is prohibited from giving any competitor of
 Gaussian, Inc. access to this program.  By using this program,
 the user acknowledges that Gaussian, Inc. is engaged in the
 business of creating and licensing software in the field of
 computational chemistry and represents and warrants to the
 licensee that it is not a competitor of Gaussian, Inc. and that
 it will not use this program in any manner prohibited above.
 ---------------------------------------------------------------
  

 Cite this work as:
 Gaussian 16, Revision C.02,
 M. J. Frisch, G. W. Trucks, H. B. Schlegel, G. E. Scuseria, 
 M. A. Robb, J. R. Cheeseman, G. Scalmani, V. Barone, 
 G. A. Petersson, H. Nakatsuji, X. Li, M. Caricato, A. V. Marenich, 
 J. Bloino, B. G. Janesko, R. Gomperts, B. Mennucci, H. P. Hratchian, 
 J. V. Ortiz, A. F. Izmaylov, J. L. Sonnenberg, D. Williams-Young, 
 F. Ding, F. Lipparini, F. Egidi, J. Goings, B. Peng, A. Petrone, 
 T. Henderson, D. Ranasinghe, V. G. Zakrzewski, J. Gao, N. Rega, 
 G. Zheng, W. Liang, M. Hada, M. Ehara, K. Toyota, R. Fukuda, 
 J. Hasegawa, M. Ishida, T. Nakajima, Y. Honda, O. Kitao, H. Nakai, 
 T. Vreven, K. Throssell, J. A. Montgomery, Jr., J. E. Peralta, 
 F. Ogliaro, M. J. Bearpark, J. J. Heyd, E. N. Brothers, K. N. Kudin, 
 V. N. Staroverov, T. A. Keith, R. Kobayashi, J. Normand, 
 K. Raghavachari, A. P. Rendell, J. C. Burant, S. S. Iyengar, 
 J. Tomasi, M. Cossi, J. M. Millam, M. Klene, C. Adamo, R. Cammi, 
 J. W. Ochterski, R. L. Martin, K. Morokuma, O. Farkas, 
 J. B. Foresman, and D. J. Fox, Gaussian, Inc., Wallingford CT, 2019.
 
 ******************************************
 Gaussian 16:  ES64L-G16RevC.02  7-Dec-2021
                 7-Feb-2023 
 ******************************************
 %NProcShared=2
 Will use up to    2 processors via shared memory.
 %mem=110gb
 %chk=/scratch1/svicchi/G09-103703.pbs02/02-freq/FeFeFe-TS1-0xH2O-freq.chk
 ----------------------------------------------------------------------
 #p freq=raman scale=0.967 guess=read geom=allcheck gen um06l int=grid=
 ultrafine scf=(xqc,intrep,maxconventionalcycle=150) pop=(hirshfeld) no
 symm
 ----------------------------------------------------------------------
 1/10=4,29=7,30=1,38=1,114=967000/1,3;
 2/12=2,15=1,40=1/2;
 3/5=7,11=2,14=-4,25=1,30=1,71=2,74=-53,75=-5,116=2,140=1/1,2,3;
 4/5=1/1;
 5/5=2,8=3,13=1,17=20,38=6,85=150,98=1/2,8;
 8/6=4,10=90,11=11/1;
 10/13=10,15=4,31=1/2;
 11/6=3,8=1,9=11,15=111,16=1,31=1/1,2,10;
 10/6=1,31=1/2;
 6/7=2,8=2,9=2,10=2,28=1,79=1/1;
 7/8=1,10=1,25=1,30=1/1,2,3,16;
 1/10=4,30=1/3;
 99//99;
 Leave Link    1 at Tue Feb  7 09:28:25 2023, MaxMem= 14763950080 cpu:               0.0 elap:               1.6
 (Enter /software/commercial/gaussian/g16/AVX2/g16/l101.exe)
 Structure from the checkpoint file:  "/scratch1/svicchi/G09-103703.pbs02/02-freq/FeFeFe-TS1-0xH2O-freq.chk"
 ----------------
 FeFeFe-TS1-0xH2O
 ----------------
 Charge =  0 Multiplicity =15
 No Z-Matrix found in chk file; cartesian coordinates used.
  O                                                -0.801253000000      2.549731000000     -1.325370000000
  O                                                 1.259982000000      1.687404000000     -1.625781000000
  C                                                 0.314438000000      2.441774000000     -1.908175000000
  H                                                 0.453556000000      3.108523000000     -2.776149000000
  O                                                -2.392758000000     -1.701524000000      1.463257000000
  O                                                -2.924921000000      0.485352000000      1.363575000000
  C                                                -3.035025000000     -0.678850000000      1.808036000000
  H                                                -3.784783000000     -0.828738000000      2.602328000000
  O                                                 1.817998000000     -1.215989000000     -1.349403000000
  O                                                -2.952855000000      0.768600000000     -1.387963000000
  O                                                -2.581584000000     -1.450940000000     -1.284736000000
  C                                                -3.155220000000     -0.426543000000     -1.716457000000
  H                                                -3.932163000000     -0.588700000000     -2.481673000000
  O                                                 1.215727000000      1.966778000000      1.295479000000
  O                                                -0.966674000000      2.505918000000      1.492533000000
  C                                                 0.259352000000      2.576594000000      1.799629000000
  H                                                 0.489658000000      3.273638000000      2.623047000000
  Fe                                                1.658160000000      0.426921000000     -0.035531000000
  O                                                 1.844466000000     -0.913901000000      1.556411000000
  Fe                                               -1.006207000000     -1.739548000000     -0.004856000000
  O                                                 0.272868000000     -2.510862000000      1.305438000000
  O                                                 0.003344000000     -2.549268000000     -1.498963000000
  Fe                                               -1.639742000000      1.362234000000      0.027235000000
  O                                                -0.377067000000      0.001525000000     -0.006371000000
  C                                                 1.288692000000     -1.986401000000      1.844047000000
  H                                                 1.725809000000     -2.568385000000      2.673696000000
  C                                                 1.160420000000     -2.152194000000     -1.829055000000
  H                                                 1.625796000000     -2.724990000000     -2.649389000000
  N                                                 4.593275000000     -0.205925000000      0.167680000000
  N                                                 5.713474000000     -0.120375000000      0.199181000000
  O                                                 3.467941000000      0.797914000000     -0.068885000000
 Recover connectivity data from disk.
 ITRead=  0  0  0  0  0  0  0  0  0  0  0  0  0  0  0  0  0  0  0  0
 ITRead=  0  0  0  0  0  0  0  0  0  0  0
 MicOpt= -1 -1 -1 -1 -1 -1 -1 -1 -1 -1 -1 -1 -1 -1 -1 -1 -1 -1 -1 -1
 MicOpt= -1 -1 -1 -1 -1 -1 -1 -1 -1 -1 -1
 NAtoms=     31 NQM=       31 NQMF=       0 NMMI=      0 NMMIF=      0
                NMic=       0 NMicF=      0.
                    Isotopes and Nuclear Properties:
 (Nuclear quadrupole moments (NQMom) in fm**2, nuclear magnetic moments (NMagM)
  in nuclear magnetons)

  Atom         1           2           3           4           5           6           7           8           9          10
 IAtWgt=          16          16          12           1          16          16          12           1          16          16
 AtmWgt=  15.9949146  15.9949146  12.0000000   1.0078250  15.9949146  15.9949146  12.0000000   1.0078250  15.9949146  15.9949146
 NucSpn=           0           0           0           1           0           0           0           1           0           0
 AtZEff=   5.6000000   5.6000000   3.6000000   1.0000000   5.6000000   5.6000000   3.6000000   1.0000000   5.6000000   5.6000000
 NQMom=    0.0000000   0.0000000   0.0000000   0.0000000   0.0000000   0.0000000   0.0000000   0.0000000   0.0000000   0.0000000
 NMagM=    0.0000000   0.0000000   0.0000000   2.7928460   0.0000000   0.0000000   0.0000000   2.7928460   0.0000000   0.0000000
 AtZNuc=   8.0000000   8.0000000   6.0000000   1.0000000   8.0000000   8.0000000   6.0000000   1.0000000   8.0000000   8.0000000

  Atom        11          12          13          14          15          16          17          18          19          20
 IAtWgt=          16          12           1          16          16          12           1          56          16          56
 AtmWgt=  15.9949146  12.0000000   1.0078250  15.9949146  15.9949146  12.0000000   1.0078250  55.9349393  15.9949146  55.9349393
 NucSpn=           0           0           1           0           0           0           1           0           0           0
 AtZEff=   5.6000000   3.6000000   1.0000000   5.6000000   5.6000000   3.6000000   1.0000000  25.2200000   5.6000000  25.2200000
 NQMom=    0.0000000   0.0000000   0.0000000   0.0000000   0.0000000   0.0000000   0.0000000   0.0000000   0.0000000   0.0000000
 NMagM=    0.0000000   0.0000000   2.7928460   0.0000000   0.0000000   0.0000000   2.7928460   0.0000000   0.0000000   0.0000000
 AtZNuc=   8.0000000   6.0000000   1.0000000   8.0000000   8.0000000   6.0000000   1.0000000  26.0000000   8.0000000  26.0000000

  Atom        21          22          23          24          25          26          27          28          29          30
 IAtWgt=          16          16          56          16          12           1          12           1          14          14
 AtmWgt=  15.9949146  15.9949146  55.9349393  15.9949146  12.0000000   1.0078250  12.0000000   1.0078250  14.0030740  14.0030740
 NucSpn=           0           0           0           0           0           1           0           1           2           2
 AtZEff=   5.6000000   5.6000000  25.2200000   5.6000000   3.6000000   1.0000000   3.6000000   1.0000000   4.5500000   4.5500000
 NQMom=    0.0000000   0.0000000   0.0000000   0.0000000   0.0000000   0.0000000   0.0000000   0.0000000   2.0440000   2.0440000
 NMagM=    0.0000000   0.0000000   0.0000000   0.0000000   0.0000000   2.7928460   0.0000000   2.7928460   0.4037610   0.4037610
 AtZNuc=   8.0000000   8.0000000  26.0000000   8.0000000   6.0000000   1.0000000   6.0000000   1.0000000   7.0000000   7.0000000

  Atom        31
 IAtWgt=          16
 AtmWgt=  15.9949146
 NucSpn=           0
 AtZEff=   5.6000000
 NQMom=    0.0000000
 NMagM=    0.0000000
 AtZNuc=   8.0000000
 Leave Link  101 at Tue Feb  7 09:28:27 2023, MaxMem= 14763950080 cpu:               0.2 elap:               1.3
 (Enter /software/commercial/gaussian/g16/AVX2/g16/l103.exe)

 GradGradGradGradGradGradGradGradGradGradGradGradGradGradGradGradGradGrad
 Berny optimization.
 Initialization pass.
 Trust Radius=3.00D-01 FncErr=1.00D-07 GrdErr=1.00D-07 EigMax=2.50D+02 EigMin=1.00D-04
 Number of steps in this run=      2 maximum allowed number of steps=      2.
 GradGradGradGradGradGradGradGradGradGradGradGradGradGradGradGradGradGrad

 Leave Link  103 at Tue Feb  7 09:28:28 2023, MaxMem= 14763950080 cpu:               0.1 elap:               0.5
 (Enter /software/commercial/gaussian/g16/AVX2/g16/l202.exe)
                          Input orientation:                          
 ---------------------------------------------------------------------
 Center     Atomic      Atomic             Coordinates (Angstroms)
 Number     Number       Type             X           Y           Z
 ---------------------------------------------------------------------
      1          8           0       -0.801253    2.549731   -1.325370
      2          8           0        1.259982    1.687404   -1.625781
      3          6           0        0.314438    2.441774   -1.908175
      4          1           0        0.453556    3.108523   -2.776149
      5          8           0       -2.392758   -1.701524    1.463257
      6          8           0       -2.924921    0.485352    1.363575
      7          6           0       -3.035025   -0.678850    1.808036
      8          1           0       -3.784783   -0.828738    2.602328
      9          8           0        1.817998   -1.215989   -1.349403
     10          8           0       -2.952855    0.768600   -1.387963
     11          8           0       -2.581584   -1.450940   -1.284736
     12          6           0       -3.155220   -0.426543   -1.716457
     13          1           0       -3.932163   -0.588700   -2.481673
     14          8           0        1.215727    1.966778    1.295479
     15          8           0       -0.966674    2.505918    1.492533
     16          6           0        0.259352    2.576594    1.799629
     17          1           0        0.489658    3.273638    2.623047
     18         26           0        1.658160    0.426921   -0.035531
     19          8           0        1.844466   -0.913901    1.556411
     20         26           0       -1.006207   -1.739548   -0.004856
     21          8           0        0.272868   -2.510862    1.305438
     22          8           0        0.003344   -2.549268   -1.498963
     23         26           0       -1.639742    1.362234    0.027235
     24          8           0       -0.377067    0.001525   -0.006371
     25          6           0        1.288692   -1.986401    1.844047
     26          1           0        1.725809   -2.568385    2.673696
     27          6           0        1.160420   -2.152194   -1.829055
     28          1           0        1.625796   -2.724990   -2.649389
     29          7           0        4.593275   -0.205925    0.167680
     30          7           0        5.713474   -0.120375    0.199181
     31          8           0        3.467941    0.797914   -0.068885
 ---------------------------------------------------------------------
                    Distance matrix (angstroms):
                    1          2          3          4          5
     1  O    0.000000
     2  O    2.254450   0.000000
     3  C    1.263362   1.242125   0.000000
     4  H    1.997887   1.998311   1.103307   0.000000
     5  O    5.327523   5.862550   5.988521   7.015028   0.000000
     6  O    4.000256   5.281533   5.002538   5.952516   2.252900
     7  C    5.023117   5.986430   5.896390   6.894138   1.255883
     8  H    5.978488   7.046810   6.916972   7.898959   1.999243
     9  O    4.587123   2.969420   3.994014   4.753810   5.086970
    10  O    2.793875   4.318420   3.707470   4.359580   3.813748
    11  O    4.379109   4.972237   4.891712   5.676715   2.765848
    12  C    3.814750   4.896019   4.505832   5.161676   3.509630
    13  H    4.581417   5.733373   5.248456   5.743754   4.378426
    14  O    3.358108   2.934922   3.361747   4.296818   5.148374
    15  O    2.823094   3.918143   3.634581   4.538924   4.442650
    16  C    3.300185   3.677683   3.710663   4.610684   5.044713
    17  H    4.216692   4.600226   4.610279   5.401841   5.865635
    18  Fe   3.495528   2.067912   3.061375   4.019085   4.815245
    19  O    5.225059   4.151476   5.060128   6.073352   4.310811
    20  Fe   4.492625   4.416674   4.780186   5.771894   2.019734
    21  O    5.803834   5.214583   5.904036   6.947625   2.790250
    22  O    5.165007   4.420929   5.017443   5.817602   3.903168
    23  Fe   1.985637   3.353595   2.954664   3.910292   3.466382
    24  O    2.900525   2.853876   3.170150   4.244413   3.020462
    25  C    5.915198   5.053452   5.885327   6.928341   3.712039
    26  H    6.969482   6.067474   6.934494   7.971620   4.379407
    27  C    5.119566   3.846264   4.671883   5.391826   4.864925
    28  H    5.955357   4.544317   5.381868   5.951478   5.840387
    29  N    6.238892   4.232262   5.443154   6.065391   7.260853
    30  N    7.203845   5.141220   6.336809   6.851650   8.355173
    31  O    4.782639   2.844328   4.003729   4.664194   6.553048
                    6          7          8          9         10
     6  O    0.000000
     7  C    1.251013   0.000000
     8  H    2.000176   1.102499   0.000000
     9  O    5.722770   5.814617   6.867117   0.000000
    10  O    2.766220   3.509455   4.377901   5.167313   0.000000
    11  O    3.298584   3.219778   4.116320   4.406326   2.252744
    12  C    3.220433   3.535556   4.382923   5.048846   1.255877
    13  H    4.117530   4.383445   5.091798   5.894054   1.999377
    14  O    4.398207   5.032987   5.876042   4.181882   5.100350
    15  O    2.816744   3.810560   4.504810   5.448265   3.906462
    16  C    3.834453   4.631512   5.347489   5.170055   4.873177
    17  H    4.584775   5.358152   5.924590   6.140163   5.849300
    18  Fe   4.792238   5.162117   6.177427   2.109730   4.817393
    19  O    4.974148   4.891625   5.726224   2.921594   5.874899
    20  Fe   3.241026   2.920233   3.917584   3.171444   3.463124
    21  O    4.382526   3.814581   4.579956   3.333512   5.330532
    22  O    5.096840   4.864812   5.842150   2.256761   4.445186
    23  Fe   2.050954   3.046981   4.004081   4.527508   2.019765
    24  O    2.932985   3.289335   4.371176   2.846820   3.021901
    25  C    4.908661   4.517246   5.258833   3.327435   6.002220
    26  H    5.715857   5.194733   5.779108   4.245327   7.037218
    27  C    5.817177   5.744644   6.770799   1.240546   5.064053
    28  H    6.864343   6.765987   7.775003   2.000997   5.895796
    29  N    7.644037   7.816993   8.746843   3.320231   7.766196
    30  N    8.737539   8.912718   9.823125   4.332807   8.855200
    31  O    6.558835   6.927643   7.898315   2.901352   6.554956
                   11         12         13         14         15
    11  O    0.000000
    12  C    1.250932   0.000000
    13  H    2.000045   1.102493   0.000000
    14  O    5.723450   5.822793   6.877363   0.000000
    15  O    5.096850   4.866896   5.845092   2.256629   0.000000
    16  C    5.814229   5.748130   6.776240   1.241248   1.265876
    17  H    6.857473   6.768144   7.779995   1.999374   1.997088
    18  Fe   4.802323   5.169385   6.186017   2.082905   3.680620
    19  O    5.286818   5.995502   7.055588   2.960019   4.427386
    20  Fe   2.050171   3.044966   4.002536   4.512728   4.501968
    21  O    3.997541   5.022750   5.976554   4.575843   5.171030
    22  O    2.816748   3.811796   4.505304   5.447334   5.953561
    23  Fe   3.243807   2.921790   3.918668   3.182392   1.976900
    24  O    2.933218   3.290254   4.371978   2.845000   2.977639
    25  C    5.005501   5.904126   6.922626   3.991726   5.038965
    26  H    5.955796   6.905460   7.906303   4.767323   5.864568
    27  C    3.845859   4.649226   5.367013   5.170271   6.103727
    28  H    4.602991   5.386217   5.956742   6.143519   7.158129
    29  N    7.425508   7.977332   8.935809   4.171379   6.326323
    30  N    8.531143   9.078389  10.022206   5.078169   7.293460
    31  O    6.567525   6.933978   7.906060   2.881007   5.002111
                   16         17         18         19         20
    16  C    0.000000
    17  H    1.103145   0.000000
    18  Fe   3.153660   4.066600   0.000000
    19  O    3.841262   4.528653   2.089687   0.000000
    20  Fe   4.846327   5.854530   3.434149   3.353444   0.000000
    21  O    5.111420   5.936626   3.513944   2.254594   1.986914
    22  O    6.100878   7.150783   3.706447   3.924215   1.976663
    23  Fe   2.867509   3.863425   3.428543   4.433833   3.165983
    24  O    3.208994   4.286231   2.079414   2.866270   1.851258
    25  C    4.677867   5.377110   3.081143   1.241723   2.957354
    26  H    5.420821   5.971588   4.039350   1.999931   3.914783
    27  C    6.028325   7.050588   3.180614   3.669151   2.862211
    28  H    7.054624   8.066779   4.094856   4.584388   3.859027
    29  N    5.402644   5.914039   3.009433   3.160024   5.808267
    30  N    6.291464   6.684512   4.098804   4.176240   6.915017
    31  O    4.117049   4.716553   1.847716   2.864885   5.144008
                   21         22         23         24         25
    21  O    0.000000
    22  O    2.817585   0.000000
    23  Fe   4.504748   4.508754   0.000000
    24  O    2.907808   2.979780   1.856612   0.000000
    25  C    1.263747   3.625556   4.805194   3.186008   0.000000
    26  H    1.996616   4.514237   5.812096   4.267234   1.103673
    27  C    3.277413   1.267065   4.861885   3.213184   3.679079
    28  H    4.185322   1.996674   5.876517   4.293121   4.566193
    29  N    5.027240   5.416311   6.428791   4.977713   4.111030
    30  N    6.044702   6.433413   7.503165   6.095228   5.076055
    31  O    4.800547   5.025155   5.139662   3.927115   4.020055
                   26         27         28         29         30
    26  H    0.000000
    27  C    4.557153   0.000000
    28  H    5.326327   1.103457   0.000000
    29  N    4.481484   4.422602   4.804945   0.000000
    30  N    5.293151   5.382595   5.622053   1.123903   0.000000
    31  O    4.678541   4.138356   4.739552   1.526444   2.440806
                   31
    31  O    0.000000
 Symmetry turned off by external request.
 Stoichiometry    C6H6Fe3N2O14(15)
 Framework group  C1[X(C6H6Fe3N2O14)]
 Deg. of freedom    87
 Full point group                 C1      NOp   1
 Rotational constants (GHZ):           0.2653961           0.1721151           0.1440544
 Leave Link  202 at Tue Feb  7 09:28:30 2023, MaxMem= 14763950080 cpu:               0.1 elap:               0.5
 (Enter /software/commercial/gaussian/g16/AVX2/g16/l301.exe)
 General basis read from cards:  (5D, 7F)
 Centers:       4      8     13     17     26     28
 S 3 1.00
     Exponent=  3.4061341000D+01 Coefficients=  6.0251978000D-03
     Exponent=  5.1235746000D+00 Coefficients=  4.5021094000D-02
     Exponent=  1.1646626000D+00 Coefficients=  2.0189726000D-01
 S 1 1.00
     Exponent=  3.2723041000D-01 Coefficients=  1.0000000000D+00
 S 1 1.00
     Exponent=  1.0307241000D-01 Coefficients=  1.0000000000D+00
 P 1 1.00
     Exponent=  8.0000000000D-01 Coefficients=  1.0000000000D+00
 ****
 Centers:       1      2      5      6      9     10     11     14     15     19
 Centers:      21     22     24     31
 S 6 1.00
     Exponent=  2.7032382631D+04 Coefficients=  2.1726302465D-04
     Exponent=  4.0523871392D+03 Coefficients=  1.6838662199D-03
     Exponent=  9.2232722710D+02 Coefficients=  8.7395616265D-03
     Exponent=  2.6124070989D+02 Coefficients=  3.5239968808D-02
     Exponent=  8.5354641351D+01 Coefficients=  1.1153519115D-01
     Exponent=  3.1035035245D+01 Coefficients=  2.5588953961D-01
 S 2 1.00
     Exponent=  1.2260860728D+01 Coefficients=  3.9768730901D-01
     Exponent=  4.9987076005D+00 Coefficients=  2.4627849430D-01
 S 1 1.00
     Exponent=  1.1703108158D+00 Coefficients=  1.0000000000D+00
 S 1 1.00
     Exponent=  4.6474740994D-01 Coefficients=  1.0000000000D+00
 S 1 1.00
     Exponent=  1.8504536357D-01 Coefficients=  1.0000000000D+00
 P 4 1.00
     Exponent=  6.3274954801D+01 Coefficients=  6.0685103418D-03
     Exponent=  1.4627049379D+01 Coefficients=  4.1912575824D-02
     Exponent=  4.4501223456D+00 Coefficients=  1.6153841088D-01
     Exponent=  1.5275799647D+00 Coefficients=  3.5706951311D-01
 P 1 1.00
     Exponent=  5.2935117943D-01 Coefficients=  4.4794207502D-01
 P 1 1.00
     Exponent=  1.7478421270D-01 Coefficients=  2.4446069663D-01
 D 1 1.00
     Exponent=  2.3140000000D+00 Coefficients=  1.0000000000D+00
 D 1 1.00
     Exponent=  6.4500000000D-01 Coefficients=  1.0000000000D+00
 F 1 1.00
     Exponent=  1.4280000000D+00 Coefficients=  1.0000000000D+00
 ****
 Centers:       3      7     12     16     25     27
 S 6 1.00
     Exponent=  1.3575349682D+04 Coefficients=  2.2245814352D-04
     Exponent=  2.0352333680D+03 Coefficients=  1.7232738252D-03
     Exponent=  4.6322562359D+02 Coefficients=  8.9255715314D-03
     Exponent=  1.3120019598D+02 Coefficients=  3.5727984502D-02
     Exponent=  4.2853015891D+01 Coefficients=  1.1076259931D-01
     Exponent=  1.5584185766D+01 Coefficients=  2.4295627626D-01
 S 2 1.00
     Exponent=  6.2067138508D+00 Coefficients=  4.1440263448D-01
     Exponent=  2.5764896527D+00 Coefficients=  2.3744968655D-01
 S 1 1.00
     Exponent=  5.7696339419D-01 Coefficients=  1.0000000000D+00
 S 1 1.00
     Exponent=  2.2972831358D-01 Coefficients=  1.0000000000D+00
 S 1 1.00
     Exponent=  9.5164440028D-02 Coefficients=  1.0000000000D+00
 P 4 1.00
     Exponent=  3.4697232244D+01 Coefficients=  5.3333657805D-03
     Exponent=  7.9582622826D+00 Coefficients=  3.5864109092D-02
     Exponent=  2.3780826883D+00 Coefficients=  1.4215873329D-01
     Exponent=  8.1433208183D-01 Coefficients=  3.4270471845D-01
 P 1 1.00
     Exponent=  2.8887547253D-01 Coefficients=  4.6445822433D-01
 P 1 1.00
     Exponent=  1.0056823671D-01 Coefficients=  2.4955789874D-01
 D 1 1.00
     Exponent=  1.0970000000D+00 Coefficients=  1.0000000000D+00
 D 1 1.00
     Exponent=  3.1800000000D-01 Coefficients=  1.0000000000D+00
 F 1 1.00
     Exponent=  7.6100000000D-01 Coefficients=  1.0000000000D+00
 ****
 Centers:      18     20     23
 S 8 1.00
     Exponent=  3.0078484637D+05 Coefficients=  2.2806273096D-04
     Exponent=  4.5088970557D+04 Coefficients=  1.7681788761D-03
     Exponent=  1.0262516317D+04 Coefficients=  9.1927083490D-03
     Exponent=  2.9052897293D+03 Coefficients=  3.7355495807D-02
     Exponent=  9.4611487137D+02 Coefficients=  1.2151108426D-01
     Exponent=  3.3987832894D+02 Coefficients=  2.8818881468D-01
     Exponent=  1.3194425588D+02 Coefficients=  4.1126612677D-01
     Exponent=  5.2111494077D+01 Coefficients=  2.1518583573D-01
 S 4 1.00
     Exponent=  3.2948839267D+02 Coefficients= -2.4745216477D-02
     Exponent=  1.0192332739D+02 Coefficients= -1.1683089050D-01
     Exponent=  1.6240462745D+01 Coefficients=  5.5293621136D-01
     Exponent=  6.8840675801D+00 Coefficients=  5.3601640182D-01
 S 2 1.00
     Exponent=  1.0470693782D+01 Coefficients= -2.2912708577D-01
     Exponent=  1.7360039648D+00 Coefficients=  7.1159319984D-01
 S 1 1.00
     Exponent=  7.2577288979D-01 Coefficients=  1.0000000000D+00
 S 1 1.00
     Exponent=  1.1595528203D-01 Coefficients=  1.0000000000D+00
 S 1 1.00
     Exponent=  4.1968227746D-02 Coefficients=  1.0000000000D+00
 P 6 1.00
     Exponent=  1.5853959970D+03 Coefficients=  2.3793960179D-03
     Exponent=  3.7538006499D+02 Coefficients=  1.9253154755D-02
     Exponent=  1.2031816501D+02 Coefficients=  9.0021836536D-02
     Exponent=  4.4788749031D+01 Coefficients=  2.5798172356D-01
     Exponent=  1.7829278584D+01 Coefficients=  4.1492649744D-01
     Exponent=  7.2247153786D+00 Coefficients=  2.4207474784D-01
 P 3 1.00
     Exponent=  2.8143219756D+01 Coefficients= -2.9041755152D-02
     Exponent=  3.8743241412D+00 Coefficients=  5.5312260343D-01
     Exponent=  1.5410752281D+00 Coefficients=  9.6771136842D-01
 P 1 1.00
     Exponent=  5.8285615250D-01 Coefficients=  1.0000000000D+00
 P 1 1.00
     Exponent=  1.3491500000D-01 Coefficients=  1.0000000000D+00
 D 4 1.00
     Exponent=  6.1996675034D+01 Coefficients=  1.1971972255D-02
     Exponent=  1.7873732552D+01 Coefficients=  7.3210135410D-02
     Exponent=  6.2744782934D+00 Coefficients=  2.3103094314D-01
     Exponent=  2.3552337175D+00 Coefficients=  3.9910706494D-01
 D 1 1.00
     Exponent=  8.5432239901D-01 Coefficients=  4.1391589765D-01
 D 1 1.00
     Exponent=  2.7869254413D-01 Coefficients=  2.1909269782D-01
 D 1 1.00
     Exponent=  9.1000000000D-02 Coefficients=  1.0000000000D+00
 F 1 1.00
     Exponent=  1.5980000000D+00 Coefficients=  1.0000000000D+00
 ****
 Centers:      29     30
 S 6 1.00
     Exponent=  1.9730800647D+04 Coefficients=  2.1887984991D-04
     Exponent=  2.9578958745D+03 Coefficients=  1.6960708803D-03
     Exponent=  6.7322133595D+02 Coefficients=  8.7954603538D-03
     Exponent=  1.9068249494D+02 Coefficients=  3.5359382605D-02
     Exponent=  6.2295441898D+01 Coefficients=  1.1095789217D-01
     Exponent=  2.2654161182D+01 Coefficients=  2.4982972552D-01
 S 2 1.00
     Exponent=  8.9791477428D+00 Coefficients=  4.0623896148D-01
     Exponent=  3.6863002370D+00 Coefficients=  2.4338217176D-01
 S 1 1.00
     Exponent=  8.4660076805D-01 Coefficients=  1.0000000000D+00
 S 1 1.00
     Exponent=  3.3647133771D-01 Coefficients=  1.0000000000D+00
 S 1 1.00
     Exponent=  1.3647653675D-01 Coefficients=  1.0000000000D+00
 P 4 1.00
     Exponent=  4.9200380510D+01 Coefficients=  5.5552416751D-03
     Exponent=  1.1346790537D+01 Coefficients=  3.8052379723D-02
     Exponent=  3.4273972411D+00 Coefficients=  1.4953671029D-01
     Exponent=  1.1785525134D+00 Coefficients=  3.4949305230D-01
 P 1 1.00
     Exponent=  4.1642204972D-01 Coefficients=  4.5843153697D-01
 P 1 1.00
     Exponent=  1.4260826011D-01 Coefficients=  2.4428771672D-01
 D 1 1.00
     Exponent=  1.6540000000D+00 Coefficients=  1.0000000000D+00
 D 1 1.00
     Exponent=  4.6900000000D-01 Coefficients=  1.0000000000D+00
 F 1 1.00
     Exponent=  1.0930000000D+00 Coefficients=  1.0000000000D+00
 ****
 Ernie: Thresh=  0.10000D-02 Tol=  0.10000D-05 Strict=F.
   853 basis functions,  1476 primitive gaussians,   984 cartesian basis functions
   130 alpha electrons      116 beta electrons
       nuclear repulsion energy      4434.9472180413 Hartrees.
 IExCor= 4134 DFT=T Ex+Corr=M06L ExCW=0 ScaHFX=  0.000000
 ScaDFX=  1.000000  1.000000  1.000000  1.000000 ScalE2=  1.000000  1.000000
 IRadAn=      5 IRanWt=     -1 IRanGd=            0 ICorTp=0 IEmpDi=  4
 NAtoms=   31 NActive=   31 NUniq=   31 SFac= 1.00D+00 NAtFMM=   60 NAOKFM=F Big=F
 Integral buffers will be    131072 words long.
 Raffenetti 2 integral format.
 Two-electron integral symmetry is turned off.
 Leave Link  301 at Tue Feb  7 09:28:31 2023, MaxMem= 14763950080 cpu:               0.1 elap:               1.1
 (Enter /software/commercial/gaussian/g16/AVX2/g16/l302.exe)
 NPDir=0 NMtPBC=     1 NCelOv=     1 NCel=       1 NClECP=     1 NCelD=      1
         NCelK=      1 NCelE2=     1 NClLst=     1 CellRange=     0.0.
 One-electron integrals computed using PRISM.
 NBasis=   853 RedAO= T EigKep=  2.20D-04  NBF=   853
 NBsUse=   853 1.00D-06 EigRej= -1.00D+00 NBFU=   853
 Precomputing XC quadrature grid using
 IXCGrd= 4 IRadAn=           5 IRanWt=          -1 IRanGd=           0 AccXCQ= 0.00D+00.
 Generated NRdTot=       0 NPtTot=           0 NUsed=           0 NTot=          32
 NSgBfM=   960   960   960   960   960 MxSgAt=    31 MxSgA2=    31.
 Leave Link  302 at Tue Feb  7 09:28:36 2023, MaxMem= 14763950080 cpu:               2.6 elap:               3.2
 (Enter /software/commercial/gaussian/g16/AVX2/g16/l303.exe)
 DipDrv:  MaxL=1.
 Leave Link  303 at Tue Feb  7 09:28:38 2023, MaxMem= 14763950080 cpu:               0.2 elap:               1.5
 (Enter /software/commercial/gaussian/g16/AVX2/g16/l401.exe)
 Initial guess from the checkpoint file:  "/scratch1/svicchi/G09-103703.pbs02/02-freq/FeFeFe-TS1-0xH2O-freq.chk"
 B after Tr=     0.000000    0.000000    0.000000
         Rot=    1.000000    0.000000    0.000000    0.000000 Ang=   0.00 deg.
 Guess basis will be translated and rotated to current coordinates.
 JPrj=2 DoOrth=T DoCkMO=T.
 Initial guess <Sx>= 0.0000 <Sy>= 0.0000 <Sz>= 7.0000 <S**2>=56.6280 S= 7.0418
 Leave Link  401 at Tue Feb  7 09:28:45 2023, MaxMem= 14763950080 cpu:               2.7 elap:               5.8
 (Enter /software/commercial/gaussian/g16/AVX2/g16/l502.exe)
 Two-electron integral symmetry not used.
 UHF open shell SCF:
 Using DIIS extrapolation, IDIIS=  1040.
 NGot= 14763950080 LenX= 14762000842 LenY= 14761031602
 Requested convergence on RMS density matrix=1.00D-08 within 150 cycles.
 Requested convergence on MAX density matrix=1.00D-06.
 Requested convergence on             energy=1.00D-06.
 No special actions if energy rises.
 Fock matrices will be formed incrementally for  20 cycles.

 Cycle   1  Pass 1  IDiag  1:
 FoFJK:  IHMeth= 1 ICntrl=     500 DoSepK=F KAlg= 0 I1Cent=           0 FoldK=F
 IRaf= 770000000 NMat=       1 IRICut=       1 DoRegI=T DoRafI=F ISym2E= 0 IDoP0=0 IntGTp=1.
 FoFCou: FMM=F IPFlag=           0 FMFlag=      100000 FMFlg1=           0
         NFxFlg=           0 DoJE=T BraDBF=F KetDBF=F FulRan=T
         wScrn=  0.000000 ICntrl=       500 IOpCl=  0 I1Cent=           0 NGrid=           0
         NMat0=    1 NMatS0=      1 NMatT0=    0 NMatD0=    1 NMtDS0=    0 NMtDT0=    0
 Symmetry not used in FoFCou.
 E= -5186.75603677184    
 DIIS: error= 3.64D-08 at cycle   1 NSaved=   1.
 NSaved= 1 IEnMin= 1 EnMin= -5186.75603677184     IErMin= 1 ErrMin= 3.64D-08
 ErrMax= 3.64D-08  0.00D+00 EMaxC= 1.00D-01 BMatC= 3.24D-12 BMatP= 3.24D-12
 IDIUse=1 WtCom= 1.00D+00 WtEn= 0.00D+00
 Coeff-Com:  0.100D+01
 Coeff:      0.100D+01
 Gap=     0.084 Goal=   None    Shift=    0.000
 Gap=     0.019 Goal=   None    Shift=    0.000
 RMSDP=4.28D-09 MaxDP=4.39D-07              OVMax= 4.00D-06

 SCF Done:  E(UM06L) =  -5186.75603677     A.U. after    1 cycles
            NFock=  1  Conv=0.43D-08     -V/T= 2.0016
 <Sx>= 0.0000 <Sy>= 0.0000 <Sz>= 7.0000 <S**2>=56.6280 S= 7.0418
 <L.S>=  0.00000000000    
 KE= 5.178249575746D+03 PE=-2.117812131070D+04 EE= 6.378168480138D+03
 Annihilation of the first spin contaminant:
 S**2 before annihilation    56.6280,   after    56.0052
 Leave Link  502 at Tue Feb  7 09:33:02 2023, MaxMem= 14763950080 cpu:             497.0 elap:             255.8
 (Enter /software/commercial/gaussian/g16/AVX2/g16/l508.exe)
 QCSCF skips out because SCF is already converged.
 Leave Link  508 at Tue Feb  7 09:33:03 2023, MaxMem= 14763950080 cpu:               0.1 elap:               0.3
 (Enter /software/commercial/gaussian/g16/AVX2/g16/l801.exe)
 DoSCS=F DFT=T ScalE2(SS,OS)=  1.000000  1.000000
 Range of M.O.s used for correlation:     1   853
 NBasis=   853 NAE=   130 NBE=   116 NFC=     0 NFV=     0
 NROrb=    853 NOA=   130 NOB=   116 NVA=   723 NVB=   737

 **** Warning!!: The largest alpha MO coefficient is  0.12337130D+02


 **** Warning!!: The smallest alpha delta epsilon is  0.84332184D-01


 **** Warning!!: The largest beta MO coefficient is  0.14440897D+02


 **** Warning!!: The smallest beta delta epsilon is  0.19441962D-01

 Leave Link  801 at Tue Feb  7 09:33:04 2023, MaxMem= 14763950080 cpu:               0.1 elap:               0.7
 (Enter /software/commercial/gaussian/g16/AVX2/g16/l1002.exe)
 Minotr:  UHF open shell wavefunction.
          Direct CPHF calculation.
          Differentiating once with respect to electric field.
                with respect to dipole field.
          Electric field/nuclear overlap derivatives assumed to be zero.
          Requested convergence is 1.0D-08 RMS, and 1.0D-07 maximum.
          Secondary convergence is 1.0D-12 RMS, and 1.0D-12 maximum.
          NewPWx=F KeepS1=T KeepF1=T KeepIn=T MapXYZ=F SortEE=F KeepMc=T.
         9519 words used for storage of precomputed grid.
 Two-electron integral symmetry not used.
          MDV=   14763950080 using IRadAn=       1.
          Solving linear equations simultaneously, MaxMat=     384.
          There are     3 degrees of freedom in the 1st order CPHF.  IDoFFX=0 NUNeed=     3.
      3 vectors produced by pass  0 Test12= 5.98D-12 3.33D-08 XBig12= 7.75D+03 4.74D+01.
 AX will form     3 AO Fock derivatives at one time.
 FoFJK:  IHMeth= 1 ICntrl=     500 DoSepK=F KAlg= 0 I1Cent=           0 FoldK=F
 IRaf= 770000000 NMat=       3 IRICut=       1 DoRegI=T DoRafI=F ISym2E= 0 IDoP0=0 IntGTp=1.
 FoFCou: FMM=F IPFlag=           0 FMFlag=      100000 FMFlg1=           0
         NFxFlg=           0 DoJE=T BraDBF=F KetDBF=F FulRan=T
         wScrn=  0.000000 ICntrl=       500 IOpCl=  0 I1Cent=           0 NGrid=           0
         NMat0=    3 NMatS0=      3 NMatT0=    0 NMatD0=    3 NMtDS0=    0 NMtDT0=    0
 Symmetry not used in FoFCou.
      3 vectors produced by pass  1 Test12= 5.98D-12 3.33D-08 XBig12= 1.83D+04 7.08D+01.
      3 vectors produced by pass  2 Test12= 5.98D-12 3.33D-08 XBig12= 4.93D+04 7.54D+01.
      3 vectors produced by pass  3 Test12= 5.98D-12 3.33D-08 XBig12= 9.05D+04 6.64D+01.
      3 vectors produced by pass  4 Test12= 5.98D-12 3.33D-08 XBig12= 1.08D+05 4.20D+01.
      3 vectors produced by pass  5 Test12= 5.98D-12 3.33D-08 XBig12= 1.44D+05 8.02D+01.
      3 vectors produced by pass  6 Test12= 5.98D-12 3.33D-08 XBig12= 7.13D+04 6.11D+01.
      3 vectors produced by pass  7 Test12= 5.98D-12 3.33D-08 XBig12= 4.63D+04 4.77D+01.
      3 vectors produced by pass  8 Test12= 5.98D-12 3.33D-08 XBig12= 4.78D+04 4.77D+01.
      3 vectors produced by pass  9 Test12= 5.98D-12 3.33D-08 XBig12= 3.25D+04 3.20D+01.
      3 vectors produced by pass 10 Test12= 5.98D-12 3.33D-08 XBig12= 6.93D+03 1.10D+01.
      3 vectors produced by pass 11 Test12= 5.98D-12 3.33D-08 XBig12= 6.39D+03 1.19D+01.
      3 vectors produced by pass 12 Test12= 5.98D-12 3.33D-08 XBig12= 3.36D+03 8.19D+00.
      3 vectors produced by pass 13 Test12= 5.98D-12 3.33D-08 XBig12= 7.36D+02 4.06D+00.
      3 vectors produced by pass 14 Test12= 5.98D-12 3.33D-08 XBig12= 2.64D+02 2.71D+00.
      3 vectors produced by pass 15 Test12= 5.98D-12 3.33D-08 XBig12= 1.89D+02 2.44D+00.
      3 vectors produced by pass 16 Test12= 5.98D-12 3.33D-08 XBig12= 6.61D+01 8.04D-01.
      3 vectors produced by pass 17 Test12= 5.98D-12 3.33D-08 XBig12= 1.20D+01 4.75D-01.
      3 vectors produced by pass 18 Test12= 5.98D-12 3.33D-08 XBig12= 1.58D+00 1.85D-01.
      3 vectors produced by pass 19 Test12= 5.98D-12 3.33D-08 XBig12= 1.59D-01 5.53D-02.
      3 vectors produced by pass 20 Test12= 5.98D-12 3.33D-08 XBig12= 1.59D-02 2.13D-02.
      3 vectors produced by pass 21 Test12= 5.98D-12 3.33D-08 XBig12= 1.77D-03 6.14D-03.
      3 vectors produced by pass 22 Test12= 5.98D-12 3.33D-08 XBig12= 1.88D-04 2.12D-03.
      3 vectors produced by pass 23 Test12= 5.98D-12 3.33D-08 XBig12= 2.02D-05 3.54D-04.
      3 vectors produced by pass 24 Test12= 5.98D-12 3.33D-08 XBig12= 2.34D-06 1.74D-04.
      3 vectors produced by pass 25 Test12= 5.98D-12 3.33D-08 XBig12= 2.27D-07 5.69D-05.
      3 vectors produced by pass 26 Test12= 5.98D-12 3.33D-08 XBig12= 1.88D-08 2.16D-05.
      3 vectors produced by pass 27 Test12= 5.98D-12 3.33D-08 XBig12= 1.57D-09 3.82D-06.
      3 vectors produced by pass 28 Test12= 5.98D-12 3.33D-08 XBig12= 1.35D-10 1.30D-06.
      1 vectors produced by pass 29 Test12= 5.98D-12 3.33D-08 XBig12= 1.07D-11 2.96D-07.
      1 vectors produced by pass 30 Test12= 5.98D-12 3.33D-08 XBig12= 6.53D-13 8.18D-08.
 InvSVY:  IOpt=1 It=  1 EMax= 7.90D-15
 Solved reduced A of dimension    89 with     3 vectors.
 End of Minotr F.D. properties file   721 does not exist.
 End of Minotr F.D. properties file   722 does not exist.
 End of Minotr F.D. properties file   788 does not exist.
 Leave Link 1002 at Tue Feb  7 12:30:58 2023, MaxMem= 14763950080 cpu:           21154.0 elap:           10672.5
 (Enter /software/commercial/gaussian/g16/AVX2/g16/l1101.exe)
 Using compressed storage, NAtomX=    31.
 Will process     32 centers per pass.
 Leave Link 1101 at Tue Feb  7 12:31:04 2023, MaxMem= 14763950080 cpu:               3.9 elap:               4.6
 (Enter /software/commercial/gaussian/g16/AVX2/g16/l1102.exe)
 Symmetrizing basis deriv contribution to polar:
 IMax=3 JMax=2 DiffMx= 0.00D+00
 Leave Link 1102 at Tue Feb  7 12:31:06 2023, MaxMem= 14763950080 cpu:               0.2 elap:               1.4
 (Enter /software/commercial/gaussian/g16/AVX2/g16/l1110.exe)
 Forming Gx(P) for the SCF density, NAtomX=    31.
 Integral derivatives from FoFJK, PRISM(SPDF).
 Do as many integral derivatives as possible in FoFJK.
 G2DrvN: MDV=   14763946689.
 G2DrvN: will do    32 centers at a time, making    1 passes.
 PxScal for G2LodP:  IOpCl= 1 ISclPx=1 IMOff=     1 NMtTot=     4 NTT=  364231 ScalPx= 3.00D+00
 Calling FoFCou, ICntrl=  3507 FMM=F I1Cent=   0 AccDes= 0.00D+00.
 FoFJK:  IHMeth= 1 ICntrl=    3507 DoSepK=F KAlg= 0 I1Cent=           0 FoldK=F
 IRaf=         0 NMat=       1 IRICut=       1 DoRegI=T DoRafI=F ISym2E= 0 IDoP0=0 IntGTp=1.
 FoFCou: FMM=F IPFlag=           0 FMFlag=      100000 FMFlg1=           0
         NFxFlg=           0 DoJE=F BraDBF=F KetDBF=F FulRan=T
         wScrn=  0.000000 ICntrl=      3507 IOpCl=  0 I1Cent=           0 NGrid=           0
         NMat0=    1 NMatS0=      1 NMatT0=    0 NMatD0=    4 NMtDS0=    3 NMtDT0=    0
 Symmetry not used in FoFCou.
 End of G2Drv F.D. properties file   721 does not exist.
 End of G2Drv F.D. properties file   722 does not exist.
 End of G2Drv F.D. properties file   788 does not exist.
 Leave Link 1110 at Tue Feb  7 15:09:25 2023, MaxMem= 14763950080 cpu:           18908.2 elap:            9498.5
 (Enter /software/commercial/gaussian/g16/AVX2/g16/l1002.exe)
 Minotr:  UHF open shell wavefunction.
          IDoAtm=1111111111111111111111111111111
          Direct CPHF calculation.
          Differentiating once with respect to electric field.
                with respect to dipole field.
          Differentiating once with respect to nuclear coordinates.
          Requested convergence is 1.0D-08 RMS, and 1.0D-07 maximum.
          Secondary convergence is 1.0D-12 RMS, and 1.0D-12 maximum.
          NewPWx=T KeepS1=F KeepF1=F KeepIn=T MapXYZ=F SortEE=F KeepMc=T.
         9519 words used for storage of precomputed grid.
 Two-electron integral symmetry not used.
          MDV=   14763950080 using IRadAn=       1.
          Solving linear equations simultaneously, MaxMat=     384.
 FoF2E skips out because all densities are zero.
 CalDSu exits because no D1Ps are significant.
 FoFJK:  IHMeth= 1 ICntrl=     500 DoSepK=F KAlg= 0 I1Cent=           0 FoldK=F
 IRaf= 770000000 NMat=      93 IRICut=       1 DoRegI=T DoRafI=F ISym2E= 0 IDoP0=3 IntGTp=3.
 FoFCou: FMM=F IPFlag=           0 FMFlag=      100000 FMFlg1=           0
         NFxFlg=           0 DoJE=F BraDBF=F KetDBF=F FulRan=T
         wScrn=  0.000000 ICntrl=       500 IOpCl=  0 I1Cent=           0 NGrid=           0
         NMat0=   93 NMatS0=     93 NMatT0=    0 NMatD0=   93 NMtDS0=    0 NMtDT0=    0
 Symmetry not used in FoFCou.
          There are    96 degrees of freedom in the 1st order CPHF.  IDoFFX=5 NUNeed=    96.
 Will reuse    3 saved solutions.
     90 vectors produced by pass  0 Test12= 1.87D-13 1.04D-09 XBig12= 9.56D-01 4.65D-01.
 AX will form    90 AO Fock derivatives at one time.
     90 vectors produced by pass  1 Test12= 1.87D-13 1.04D-09 XBig12= 2.41D-01 6.15D-02.
     90 vectors produced by pass  2 Test12= 1.87D-13 1.04D-09 XBig12= 1.92D-03 7.80D-03.
     90 vectors produced by pass  3 Test12= 1.87D-13 1.04D-09 XBig12= 6.21D-05 1.12D-03.
     90 vectors produced by pass  4 Test12= 1.87D-13 1.04D-09 XBig12= 1.40D-06 1.33D-04.
     90 vectors produced by pass  5 Test12= 1.87D-13 1.04D-09 XBig12= 2.67D-08 1.62D-05.
     90 vectors produced by pass  6 Test12= 1.87D-13 1.04D-09 XBig12= 2.95D-10 1.16D-06.
     85 vectors produced by pass  7 Test12= 1.87D-13 1.04D-09 XBig12= 2.67D-12 9.07D-08.
     31 vectors produced by pass  8 Test12= 1.87D-13 1.04D-09 XBig12= 1.84D-14 8.68D-09.
 InvSVY:  IOpt=1 It=  1 EMax= 9.99D-16
 Solved reduced A of dimension   746 with    96 vectors.
 FullF1:  Do perturbations      1 to       3.
 Isotropic polarizability for W=    0.000000      254.75 Bohr**3.
 FullF1:  Do perturbations      1 to       6.
 End of Minotr F.D. properties file   721 does not exist.
 End of Minotr F.D. properties file   722 does not exist.
 End of Minotr F.D. properties file   788 does not exist.
 Leave Link 1002 at Tue Feb  7 21:44:49 2023, MaxMem= 14763950080 cpu:           46774.9 elap:           23721.8
 (Enter /software/commercial/gaussian/g16/AVX2/g16/l601.exe)
 Copying SCF densities to generalized density rwf, IOpCl= 1 IROHF=0.

 **********************************************************************

            Population analysis using the SCF Density.

 **********************************************************************

 Alpha  occ. eigenvalues -- -255.66083-255.65994-255.63211 -30.11127 -30.11000
 Alpha  occ. eigenvalues --  -30.07842 -25.88242 -25.88156 -25.88151 -25.88080
 Alpha  occ. eigenvalues --  -25.88008 -25.87954 -25.85424 -25.84896 -25.84433
 Alpha  occ. eigenvalues --  -19.00207 -18.99993 -18.99986 -18.99899 -18.99891
 Alpha  occ. eigenvalues --  -18.99665 -18.99570 -18.99513 -18.99420 -18.98820
 Alpha  occ. eigenvalues --  -18.98776 -18.98616 -18.98557 -18.98389 -14.30083
 Alpha  occ. eigenvalues --  -14.24568 -10.19745 -10.19736 -10.19023 -10.18917
 Alpha  occ. eigenvalues --  -10.18894 -10.18797  -3.67923  -3.67802  -3.64612
 Alpha  occ. eigenvalues --   -2.42075  -2.42019  -2.41901  -2.41724  -2.41716
 Alpha  occ. eigenvalues --   -2.41604  -2.39639  -2.38537  -2.37657  -1.08743
 Alpha  occ. eigenvalues --   -1.08167  -1.07839  -1.07671  -1.07425  -1.07270
 Alpha  occ. eigenvalues --   -1.06674  -1.00897  -1.00430  -1.00115  -0.99857
 Alpha  occ. eigenvalues --   -0.99762  -0.99602  -0.95591  -0.91498  -0.61237
 Alpha  occ. eigenvalues --   -0.59972  -0.59754  -0.59576  -0.59341  -0.59134
 Alpha  occ. eigenvalues --   -0.55590  -0.51340  -0.50862  -0.50705  -0.49814
 Alpha  occ. eigenvalues --   -0.49611  -0.49530  -0.49283  -0.48836  -0.48648
 Alpha  occ. eigenvalues --   -0.47904  -0.47837  -0.47510  -0.46397  -0.45985
 Alpha  occ. eigenvalues --   -0.45513  -0.44496  -0.44301  -0.43708  -0.43383
 Alpha  occ. eigenvalues --   -0.43149  -0.42152  -0.41830  -0.41189  -0.40773
 Alpha  occ. eigenvalues --   -0.40760  -0.40102  -0.39920  -0.39637  -0.39568
 Alpha  occ. eigenvalues --   -0.39375  -0.39052  -0.38354  -0.38237  -0.38016
 Alpha  occ. eigenvalues --   -0.37071  -0.34802  -0.34452  -0.33922  -0.31922
 Alpha  occ. eigenvalues --   -0.31290  -0.31218  -0.30843  -0.30429  -0.30380
 Alpha  occ. eigenvalues --   -0.30234  -0.30202  -0.30022  -0.29384  -0.29170
 Alpha  occ. eigenvalues --   -0.28530  -0.28303  -0.27183  -0.26867  -0.26674
 Alpha  occ. eigenvalues --   -0.26370  -0.25115  -0.24209  -0.23925  -0.22795
 Alpha virt. eigenvalues --   -0.14362  -0.05455  -0.04530  -0.04351  -0.04307
 Alpha virt. eigenvalues --   -0.04109  -0.03466  -0.03221   0.01456   0.02120
 Alpha virt. eigenvalues --    0.04925   0.05820   0.07024   0.07681   0.07750
 Alpha virt. eigenvalues --    0.07781   0.08336   0.08557   0.09947   0.10338
 Alpha virt. eigenvalues --    0.11885   0.13226   0.13806   0.14794   0.15875
 Alpha virt. eigenvalues --    0.16040   0.16361   0.17426   0.17726   0.18194
 Alpha virt. eigenvalues --    0.20070   0.20874   0.21369   0.21879   0.22035
 Alpha virt. eigenvalues --    0.22160   0.22786   0.23501   0.24549   0.25040
 Alpha virt. eigenvalues --    0.25693   0.26585   0.26823   0.27286   0.27604
 Alpha virt. eigenvalues --    0.27967   0.28346   0.29265   0.29420   0.29512
 Alpha virt. eigenvalues --    0.30139   0.30814   0.31127   0.31436   0.32277
 Alpha virt. eigenvalues --    0.33188   0.33586   0.33724   0.34155   0.34630
 Alpha virt. eigenvalues --    0.35356   0.35855   0.36332   0.36584   0.37356
 Alpha virt. eigenvalues --    0.37587   0.37922   0.38332   0.38989   0.39172
 Alpha virt. eigenvalues --    0.39378   0.39593   0.39845   0.40364   0.41110
 Alpha virt. eigenvalues --    0.41345   0.41724   0.42123   0.42632   0.42787
 Alpha virt. eigenvalues --    0.43769   0.44131   0.44767   0.45352   0.45745
 Alpha virt. eigenvalues --    0.46262   0.47145   0.47818   0.48711   0.48952
 Alpha virt. eigenvalues --    0.49609   0.50274   0.50988   0.51636   0.51936
 Alpha virt. eigenvalues --    0.53364   0.53795   0.53965   0.54552   0.55054
 Alpha virt. eigenvalues --    0.55861   0.56156   0.56570   0.57659   0.58819
 Alpha virt. eigenvalues --    0.59493   0.60159   0.61661   0.62144   0.62213
 Alpha virt. eigenvalues --    0.63820   0.65291   0.65623   0.65991   0.66478
 Alpha virt. eigenvalues --    0.67122   0.67408   0.68273   0.68974   0.69198
 Alpha virt. eigenvalues --    0.69895   0.70212   0.70441   0.70626   0.70880
 Alpha virt. eigenvalues --    0.71555   0.71740   0.72065   0.72795   0.73820
 Alpha virt. eigenvalues --    0.74648   0.75091   0.75630   0.75796   0.76320
 Alpha virt. eigenvalues --    0.76648   0.77950   0.78989   0.79333   0.80250
 Alpha virt. eigenvalues --    0.80384   0.81374   0.81905   0.82559   0.84363
 Alpha virt. eigenvalues --    0.85121   0.85788   0.86145   0.86564   0.86801
 Alpha virt. eigenvalues --    0.87863   0.88995   0.90028   0.90695   0.91595
 Alpha virt. eigenvalues --    0.92372   0.92780   0.93282   0.94276   0.95484
 Alpha virt. eigenvalues --    0.95779   0.96373   0.96876   0.97663   0.98015
 Alpha virt. eigenvalues --    0.98437   0.99076   1.00699   1.01287   1.01821
 Alpha virt. eigenvalues --    1.02203   1.03227   1.03619   1.04955   1.05784
 Alpha virt. eigenvalues --    1.06022   1.06760   1.07606   1.08594   1.09564
 Alpha virt. eigenvalues --    1.09797   1.10462   1.10973   1.12794   1.15267
 Alpha virt. eigenvalues --    1.17698   1.18821   1.20776   1.21188   1.21769
 Alpha virt. eigenvalues --    1.22658   1.23229   1.24413   1.24900   1.25450
 Alpha virt. eigenvalues --    1.26160   1.26735   1.27751   1.29454   1.29878
 Alpha virt. eigenvalues --    1.32452   1.33936   1.36276   1.37138   1.38056
 Alpha virt. eigenvalues --    1.39107   1.39309   1.40403   1.41674   1.42144
 Alpha virt. eigenvalues --    1.44005   1.44258   1.45497   1.45659   1.46826
 Alpha virt. eigenvalues --    1.47966   1.48337   1.48449   1.49309   1.49938
 Alpha virt. eigenvalues --    1.50817   1.51802   1.52227   1.53396   1.54280
 Alpha virt. eigenvalues --    1.55007   1.55802   1.57298   1.58149   1.58883
 Alpha virt. eigenvalues --    1.59640   1.60599   1.61724   1.61762   1.62781
 Alpha virt. eigenvalues --    1.64021   1.65818   1.66479   1.67432   1.67939
 Alpha virt. eigenvalues --    1.69086   1.70642   1.71472   1.72275   1.74697
 Alpha virt. eigenvalues --    1.75388   1.75786   1.76342   1.77838   1.79236
 Alpha virt. eigenvalues --    1.82187   1.83219   1.84653   1.85863   1.85912
 Alpha virt. eigenvalues --    1.86593   1.86652   1.86836   1.87870   1.88345
 Alpha virt. eigenvalues --    1.88737   1.89975   1.90275   1.90914   1.91707
 Alpha virt. eigenvalues --    1.93019   1.93901   1.94613   1.95260   1.96117
 Alpha virt. eigenvalues --    1.96506   1.97655   1.99232   1.99963   2.00485
 Alpha virt. eigenvalues --    2.01189   2.01702   2.02182   2.03204   2.03921
 Alpha virt. eigenvalues --    2.05107   2.05400   2.06708   2.07960   2.08347
 Alpha virt. eigenvalues --    2.09193   2.09547   2.10013   2.10414   2.10954
 Alpha virt. eigenvalues --    2.12122   2.12150   2.12322   2.13934   2.14225
 Alpha virt. eigenvalues --    2.14922   2.15633   2.16412   2.16808   2.17307
 Alpha virt. eigenvalues --    2.18857   2.19061   2.19205   2.20720   2.21708
 Alpha virt. eigenvalues --    2.22333   2.22914   2.23857   2.24340   2.24775
 Alpha virt. eigenvalues --    2.24809   2.25755   2.28197   2.29016   2.29716
 Alpha virt. eigenvalues --    2.31245   2.32179   2.34158   2.36812   2.38840
 Alpha virt. eigenvalues --    2.39630   2.40534   2.42554   2.43579   2.46170
 Alpha virt. eigenvalues --    2.46951   2.52458   2.54123   2.55357   2.55722
 Alpha virt. eigenvalues --    2.56579   2.56841   2.57368   2.60918   2.61757
 Alpha virt. eigenvalues --    2.63193   2.64953   2.66595   2.66812   2.67342
 Alpha virt. eigenvalues --    2.68726   2.69261   2.70886   2.71686   2.72852
 Alpha virt. eigenvalues --    2.73939   2.75732   2.77087   2.78583   2.80429
 Alpha virt. eigenvalues --    2.80754   2.82292   2.83971   2.84071   2.85992
 Alpha virt. eigenvalues --    2.87746   2.90086   2.91216   2.92632   2.93527
 Alpha virt. eigenvalues --    2.94203   2.94784   2.95809   2.96557   2.97057
 Alpha virt. eigenvalues --    2.98714   2.99753   3.00379   3.00860   3.01114
 Alpha virt. eigenvalues --    3.02830   3.03047   3.03764   3.04166   3.04777
 Alpha virt. eigenvalues --    3.05267   3.05752   3.06485   3.07216   3.08888
 Alpha virt. eigenvalues --    3.10505   3.10877   3.11886   3.12142   3.12686
 Alpha virt. eigenvalues --    3.13122   3.13316   3.13588   3.13731   3.14730
 Alpha virt. eigenvalues --    3.15236   3.15262   3.15323   3.15781   3.16532
 Alpha virt. eigenvalues --    3.17170   3.19620   3.20381   3.20799   3.21729
 Alpha virt. eigenvalues --    3.22418   3.23391   3.24348   3.25311   3.26392
 Alpha virt. eigenvalues --    3.26802   3.27107   3.28545   3.30654   3.30792
 Alpha virt. eigenvalues --    3.32176   3.33350   3.35952   3.36635   3.37942
 Alpha virt. eigenvalues --    3.38908   3.41121   3.41563   3.42099   3.42565
 Alpha virt. eigenvalues --    3.43755   3.44541   3.44955   3.45557   3.46301
 Alpha virt. eigenvalues --    3.46812   3.47865   3.48503   3.49032   3.49212
 Alpha virt. eigenvalues --    3.49452   3.50250   3.52042   3.52877   3.55490
 Alpha virt. eigenvalues --    3.56465   3.56993   3.57964   3.58735   3.58852
 Alpha virt. eigenvalues --    3.59255   3.59999   3.61071   3.61412   3.61898
 Alpha virt. eigenvalues --    3.63766   3.64454   3.65706   3.67811   3.69619
 Alpha virt. eigenvalues --    3.70119   3.70651   3.71622   3.72112   3.74579
 Alpha virt. eigenvalues --    3.75271   3.76206   3.77795   3.77949   3.79167
 Alpha virt. eigenvalues --    3.79645   3.81061   3.81323   3.82085   3.85323
 Alpha virt. eigenvalues --    3.87083   3.88069   3.89634   3.90070   3.90205
 Alpha virt. eigenvalues --    3.91276   3.91532   3.92363   3.92776   3.93615
 Alpha virt. eigenvalues --    3.93808   3.93947   3.95136   3.96283   3.99239
 Alpha virt. eigenvalues --    4.00461   4.02083   4.02693   4.03906   4.06226
 Alpha virt. eigenvalues --    4.06616   4.09633   4.11765   4.12953   4.13462
 Alpha virt. eigenvalues --    4.14329   4.14728   4.15749   4.16620   4.17173
 Alpha virt. eigenvalues --    4.19399   4.20057   4.20295   4.21210   4.23014
 Alpha virt. eigenvalues --    4.23386   4.24094   4.24780   4.25475   4.26559
 Alpha virt. eigenvalues --    4.41210   4.43041   4.43810   4.44628   4.45907
 Alpha virt. eigenvalues --    4.46511   4.48041   4.48958   4.49529   4.49981
 Alpha virt. eigenvalues --    4.51180   4.53150   4.54146   4.56021   4.59398
 Alpha virt. eigenvalues --    4.61359   4.66194   4.69534   4.78282   4.88460
 Alpha virt. eigenvalues --    4.96239   5.09456   5.10614   5.14000   5.21937
 Alpha virt. eigenvalues --    5.22241   5.22536   5.22615   5.23139   5.23689
 Alpha virt. eigenvalues --    5.23739   5.23988   5.24196   5.24339   5.24752
 Alpha virt. eigenvalues --    5.24909   5.24981   5.25740   5.25923   5.26051
 Alpha virt. eigenvalues --    5.26342   5.27188   5.27589   5.27969   5.28532
 Alpha virt. eigenvalues --    5.29090   5.29943   5.30580   5.30750   5.31098
 Alpha virt. eigenvalues --    5.31457   5.31729   5.32427   5.34969   5.35897
 Alpha virt. eigenvalues --    5.36414   5.37257   5.39019   5.40221   5.42099
 Alpha virt. eigenvalues --    5.42915   5.44892   5.45844   5.48056   5.48626
 Alpha virt. eigenvalues --    5.56576   5.57126   5.57425   5.57537   5.57967
 Alpha virt. eigenvalues --    5.59119   5.60573   5.61055   5.62085   5.62135
 Alpha virt. eigenvalues --    5.63088   5.64936   5.67281   5.67788   5.68012
 Alpha virt. eigenvalues --    5.68152   5.68582   5.68847   5.72496   5.81100
 Alpha virt. eigenvalues --    5.86542   5.87144   5.87588   5.91683   5.91861
 Alpha virt. eigenvalues --    5.93168   6.03623   6.04706   6.04853   6.06854
 Alpha virt. eigenvalues --    6.08773   6.08935   6.12346   6.14289   6.14417
 Alpha virt. eigenvalues --    6.14832   6.15089   6.15933   6.16190   6.16267
 Alpha virt. eigenvalues --    6.18127   6.18951   6.20340   6.22553   6.25257
 Alpha virt. eigenvalues --    6.30799   6.34501   6.40865   6.41149   6.41676
 Alpha virt. eigenvalues --    6.43375   6.44887   6.45545   6.47298   6.47745
 Alpha virt. eigenvalues --    6.47830   6.47992   6.48508   6.48800   6.51316
 Alpha virt. eigenvalues --    6.52669   6.53654   6.54005   6.54812   6.56239
 Alpha virt. eigenvalues --    6.56691   6.58238   6.59361   6.60228   6.61147
 Alpha virt. eigenvalues --    6.62368   6.62649   6.63346   6.65112   6.66115
 Alpha virt. eigenvalues --    6.66426   6.69021   6.70237   6.71340   6.71961
 Alpha virt. eigenvalues --    6.72260   6.74096   6.75519   6.76334   6.79113
 Alpha virt. eigenvalues --    6.82186   6.82859   6.84254   6.84788   6.86316
 Alpha virt. eigenvalues --    6.87047   6.87712   6.87971   6.88858   6.89053
 Alpha virt. eigenvalues --    6.90229   6.90369   6.92189   6.95184   6.96450
 Alpha virt. eigenvalues --    6.97171   6.97745   6.98538   7.02162   7.03332
 Alpha virt. eigenvalues --    7.03742   7.05083   7.05195   7.07984   7.09613
 Alpha virt. eigenvalues --    7.11371   7.13401   7.20818   7.21874   7.21960
 Alpha virt. eigenvalues --    7.22670   7.23483   7.24097   7.25030   7.25418
 Alpha virt. eigenvalues --    7.26427   7.26631   7.27410   7.28843   7.30048
 Alpha virt. eigenvalues --    7.30699   7.32281   7.35372   7.36560   7.42689
 Alpha virt. eigenvalues --    7.63388  23.19517  23.20085  23.20788  23.21371
 Alpha virt. eigenvalues --   23.21624  23.23311  31.60416  32.30825  43.75813
 Alpha virt. eigenvalues --   43.83003  43.85258  43.89460  43.90326  43.93704
 Alpha virt. eigenvalues --   43.94802  44.09758  44.11368  44.16386  44.17171
 Alpha virt. eigenvalues --   44.20936  44.28082  44.28752
  Beta  occ. eigenvalues -- -255.65898-255.65810-255.63044 -29.99559 -29.99456
  Beta  occ. eigenvalues --  -29.96456 -25.79797 -25.79698 -25.79655 -25.79609
  Beta  occ. eigenvalues --  -25.79543 -25.79507 -25.76785 -25.76618 -25.76369
  Beta  occ. eigenvalues --  -19.00328 -18.99675 -18.99666 -18.99590 -18.99582
  Beta  occ. eigenvalues --  -18.99285 -18.99189 -18.99118 -18.99024 -18.98534
  Beta  occ. eigenvalues --  -18.98478 -18.98335 -18.98259 -18.96512 -14.30480
  Beta  occ. eigenvalues --  -14.25039 -10.19746 -10.19738 -10.19022 -10.18912
  Beta  occ. eigenvalues --  -10.18897 -10.18794  -3.43202  -3.43153  -3.40263
  Beta  occ. eigenvalues --   -2.17987  -2.17916  -2.17447  -2.17412  -2.17389
  Beta  occ. eigenvalues --   -2.17359  -2.14889  -2.14694  -2.14440  -1.08090
  Beta  occ. eigenvalues --   -1.07847  -1.07515  -1.07136  -1.06970  -1.06715
  Beta  occ. eigenvalues --   -1.06560  -1.00119  -0.99653  -0.99279  -0.99035
  Beta  occ. eigenvalues --   -0.98913  -0.98761  -0.93819  -0.90439  -0.60463
  Beta  occ. eigenvalues --   -0.59167  -0.59143  -0.58911  -0.58427  -0.58261
  Beta  occ. eigenvalues --   -0.57210  -0.50040  -0.49378  -0.48451  -0.48281
  Beta  occ. eigenvalues --   -0.48228  -0.47686  -0.47541  -0.47419  -0.47274
  Beta  occ. eigenvalues --   -0.47044  -0.46874  -0.46764  -0.45968  -0.44416
  Beta  occ. eigenvalues --   -0.43579  -0.43081  -0.42894  -0.42459  -0.41429
  Beta  occ. eigenvalues --   -0.41154  -0.40960  -0.37843  -0.36950  -0.33234
  Beta  occ. eigenvalues --   -0.33175  -0.32233  -0.31942  -0.31895  -0.31164
  Beta  occ. eigenvalues --   -0.30844  -0.30702  -0.30417  -0.30261  -0.30179
  Beta  occ. eigenvalues --   -0.29575  -0.29348  -0.28994  -0.28834  -0.28618
  Beta  occ. eigenvalues --   -0.28466  -0.28309  -0.27957  -0.27332  -0.26861
  Beta  occ. eigenvalues --   -0.20860
  Beta virt. eigenvalues --   -0.18916  -0.18835  -0.18463  -0.18199  -0.17400
  Beta virt. eigenvalues --   -0.15967  -0.15745  -0.15145  -0.14086  -0.13813
  Beta virt. eigenvalues --   -0.12403  -0.11487  -0.11280  -0.11160  -0.08104
  Beta virt. eigenvalues --   -0.05052  -0.04544  -0.04146  -0.03490  -0.03320
  Beta virt. eigenvalues --   -0.03038  -0.02821   0.02471   0.03394   0.03768
  Beta virt. eigenvalues --    0.06464   0.07329   0.07822   0.07865   0.07978
  Beta virt. eigenvalues --    0.08404   0.08639   0.10592   0.11057   0.12778
  Beta virt. eigenvalues --    0.13838   0.15829   0.16023   0.16290   0.16718
  Beta virt. eigenvalues --    0.17704   0.17718   0.18265   0.19013   0.20686
  Beta virt. eigenvalues --    0.21018   0.21583   0.22203   0.22291   0.23304
  Beta virt. eigenvalues --    0.24022   0.24166   0.25339   0.25779   0.26575
  Beta virt. eigenvalues --    0.26846   0.27046   0.27200   0.27492   0.28058
  Beta virt. eigenvalues --    0.28710   0.29967   0.30130   0.30650   0.31491
  Beta virt. eigenvalues --    0.31647   0.31744   0.31809   0.32745   0.33725
  Beta virt. eigenvalues --    0.33923   0.34626   0.35056   0.35283   0.35640
  Beta virt. eigenvalues --    0.36225   0.36587   0.36939   0.37603   0.37691
  Beta virt. eigenvalues --    0.38136   0.38454   0.39313   0.39660   0.39864
  Beta virt. eigenvalues --    0.40093   0.40604   0.40907   0.41358   0.41886
  Beta virt. eigenvalues --    0.42202   0.42344   0.42892   0.43446   0.44085
  Beta virt. eigenvalues --    0.44622   0.45241   0.45797   0.46659   0.47248
  Beta virt. eigenvalues --    0.47548   0.48170   0.48968   0.49291   0.49796
  Beta virt. eigenvalues --    0.50792   0.51440   0.52064   0.53079   0.53862
  Beta virt. eigenvalues --    0.54309   0.54791   0.54965   0.55162   0.56363
  Beta virt. eigenvalues --    0.56753   0.57415   0.57784   0.58986   0.59731
  Beta virt. eigenvalues --    0.60636   0.62384   0.62604   0.62688   0.64287
  Beta virt. eigenvalues --    0.65574   0.66010   0.66136   0.66658   0.67520
  Beta virt. eigenvalues --    0.67667   0.68689   0.69455   0.69588   0.70698
  Beta virt. eigenvalues --    0.70818   0.71141   0.71247   0.71494   0.72197
  Beta virt. eigenvalues --    0.72415   0.72686   0.73191   0.74240   0.74902
  Beta virt. eigenvalues --    0.75458   0.76125   0.76409   0.76901   0.77075
  Beta virt. eigenvalues --    0.79195   0.79707   0.80018   0.80820   0.81371
  Beta virt. eigenvalues --    0.82066   0.82714   0.83060   0.84549   0.86128
  Beta virt. eigenvalues --    0.87063   0.87221   0.87546   0.88153   0.89068
  Beta virt. eigenvalues --    0.90144   0.90433   0.91881   0.92964   0.93352
  Beta virt. eigenvalues --    0.94503   0.94705   0.95606   0.95901   0.96530
  Beta virt. eigenvalues --    0.97276   0.97506   0.98207   0.99092   0.99847
  Beta virt. eigenvalues --    1.00303   1.02342   1.02754   1.03330   1.04003
  Beta virt. eigenvalues --    1.04452   1.05186   1.06054   1.06842   1.07024
  Beta virt. eigenvalues --    1.07699   1.08388   1.09934   1.10222   1.11998
  Beta virt. eigenvalues --    1.12836   1.13426   1.15061   1.16504   1.18317
  Beta virt. eigenvalues --    1.19020   1.21507   1.22134   1.22882   1.23556
  Beta virt. eigenvalues --    1.23975   1.24794   1.25462   1.26006   1.26541
  Beta virt. eigenvalues --    1.27560   1.28070   1.30324   1.31368   1.33422
  Beta virt. eigenvalues --    1.34916   1.36626   1.37526   1.38929   1.39743
  Beta virt. eigenvalues --    1.40142   1.41210   1.42562   1.43148   1.43761
  Beta virt. eigenvalues --    1.45275   1.46524   1.46716   1.47641   1.48553
  Beta virt. eigenvalues --    1.49059   1.49440   1.50294   1.50875   1.51712
  Beta virt. eigenvalues --    1.52712   1.52862   1.54519   1.55040   1.55607
  Beta virt. eigenvalues --    1.56517   1.57813   1.59105   1.59525   1.60101
  Beta virt. eigenvalues --    1.61271   1.62380   1.62545   1.63413   1.64607
  Beta virt. eigenvalues --    1.66431   1.67115   1.68006   1.68503   1.69677
  Beta virt. eigenvalues --    1.71344   1.72018   1.72870   1.75358   1.76229
  Beta virt. eigenvalues --    1.76459   1.77115   1.78671   1.79724   1.82539
  Beta virt. eigenvalues --    1.83336   1.85244   1.86242   1.86358   1.86942
  Beta virt. eigenvalues --    1.87248   1.87852   1.88926   1.89452   1.89798
  Beta virt. eigenvalues --    1.90670   1.91065   1.92175   1.92479   1.93879
  Beta virt. eigenvalues --    1.94706   1.95047   1.95942   1.97036   1.97621
  Beta virt. eigenvalues --    1.98910   2.00023   2.00683   2.01210   2.02763
  Beta virt. eigenvalues --    2.03093   2.03708   2.05069   2.05719   2.05909
  Beta virt. eigenvalues --    2.06387   2.07761   2.08890   2.09315   2.09734
  Beta virt. eigenvalues --    2.10369   2.10683   2.11514   2.11935   2.12785
  Beta virt. eigenvalues --    2.12875   2.13449   2.14839   2.15286   2.15809
  Beta virt. eigenvalues --    2.16451   2.17233   2.18308   2.18625   2.20393
  Beta virt. eigenvalues --    2.20821   2.21778   2.21967   2.22662   2.23288
  Beta virt. eigenvalues --    2.24862   2.25538   2.26492   2.26714   2.27642
  Beta virt. eigenvalues --    2.29105   2.30705   2.31387   2.32092   2.33802
  Beta virt. eigenvalues --    2.35014   2.37478   2.38188   2.39223   2.40070
  Beta virt. eigenvalues --    2.41351   2.43046   2.44478   2.46963   2.47894
  Beta virt. eigenvalues --    2.54483   2.55792   2.56350   2.56737   2.57316
  Beta virt. eigenvalues --    2.57929   2.58631   2.62322   2.63017   2.63941
  Beta virt. eigenvalues --    2.66814   2.67702   2.67899   2.68298   2.69798
  Beta virt. eigenvalues --    2.70442   2.72532   2.73073   2.74801   2.75661
  Beta virt. eigenvalues --    2.76719   2.77959   2.79332   2.81487   2.81888
  Beta virt. eigenvalues --    2.84509   2.85425   2.87439   2.88497   2.89950
  Beta virt. eigenvalues --    2.91740   2.92853   2.94811   2.94982   2.95391
  Beta virt. eigenvalues --    2.96773   2.96872   2.97762   2.98057   2.99457
  Beta virt. eigenvalues --    3.00507   3.01247   3.01733   3.02449   3.03839
  Beta virt. eigenvalues --    3.04404   3.04799   3.05071   3.05959   3.06378
  Beta virt. eigenvalues --    3.07264   3.08131   3.08443   3.09585   3.11471
  Beta virt. eigenvalues --    3.11746   3.12640   3.12940   3.13473   3.13722
  Beta virt. eigenvalues --    3.13941   3.14204   3.14531   3.15255   3.15640
  Beta virt. eigenvalues --    3.15842   3.16181   3.16552   3.17318   3.18240
  Beta virt. eigenvalues --    3.21622   3.21648   3.22289   3.23066   3.23165
  Beta virt. eigenvalues --    3.24358   3.25894   3.26601   3.27364   3.27980
  Beta virt. eigenvalues --    3.28369   3.29906   3.31810   3.32423   3.33480
  Beta virt. eigenvalues --    3.34089   3.37397   3.37701   3.39226   3.41100
  Beta virt. eigenvalues --    3.42925   3.44061   3.45321   3.45646   3.46059
  Beta virt. eigenvalues --    3.46743   3.47338   3.48376   3.48795   3.49151
  Beta virt. eigenvalues --    3.49351   3.49439   3.49946   3.50131   3.51443
  Beta virt. eigenvalues --    3.52366   3.54021   3.55594   3.58296   3.59449
  Beta virt. eigenvalues --    3.60697   3.61671   3.62177   3.62550   3.63876
  Beta virt. eigenvalues --    3.64832   3.65898   3.66947   3.67767   3.68223
  Beta virt. eigenvalues --    3.68845   3.70439   3.70614   3.73924   3.74593
  Beta virt. eigenvalues --    3.75141   3.76236   3.76667   3.77183   3.77649
  Beta virt. eigenvalues --    3.79788   3.80416   3.80784   3.81789   3.82148
  Beta virt. eigenvalues --    3.82452   3.83713   3.87998   3.90429   3.92072
  Beta virt. eigenvalues --    3.94576   3.99247   4.01531   4.02160   4.05943
  Beta virt. eigenvalues --    4.06786   4.07640   4.08925   4.09121   4.09394
  Beta virt. eigenvalues --    4.09886   4.10493   4.10786   4.10994   4.11097
  Beta virt. eigenvalues --    4.12116   4.13161   4.13688   4.15456   4.17090
  Beta virt. eigenvalues --    4.17251   4.17561   4.18684   4.18794   4.19520
  Beta virt. eigenvalues --    4.20537   4.23394   4.24932   4.26683   4.27967
  Beta virt. eigenvalues --    4.28745   4.28986   4.29639   4.30329   4.32410
  Beta virt. eigenvalues --    4.32833   4.33781   4.35259   4.37196   4.41050
  Beta virt. eigenvalues --    4.43816   4.44446   4.44628   4.45156   4.46567
  Beta virt. eigenvalues --    4.48757   4.49808   4.50380   4.50518   4.51951
  Beta virt. eigenvalues --    4.53382   4.54887   4.56778   4.59657   4.60809
  Beta virt. eigenvalues --    4.64458   4.67854   4.76739   4.87607   4.95889
  Beta virt. eigenvalues --    5.07355   5.08869   5.13054   5.23221   5.23688
  Beta virt. eigenvalues --    5.23932   5.24065   5.24452   5.24990   5.25152
  Beta virt. eigenvalues --    5.25320   5.25470   5.25820   5.26018   5.26230
  Beta virt. eigenvalues --    5.26542   5.27191   5.27403   5.28430   5.28682
  Beta virt. eigenvalues --    5.29287   5.29586   5.29914   5.30514   5.31279
  Beta virt. eigenvalues --    5.31381   5.32162   5.32471   5.33347   5.35178
  Beta virt. eigenvalues --    5.36041   5.36854   5.37958   5.38805   5.40184
[...]
 00055958,-0.00049413,0.00106757,-0.00029812,0.00011384,-0.00005746,0.0
 0005164,-0.00071918,0.00006071,-0.00006696,-0.00098722,-0.00084161,-0.
 00092461,0.00140815,0.00022953,0.00062998,-0.00011275,-0.00008810,-0.0
 0008920,0.00480863,0.00768430,-0.00052612,0.04493200,0.14112286,-0.132
 22462,-0.01733329,0.00839749,-0.01454006,-0.16531121,-0.06071812,-0.16
 895624,0.00019829,0.00011289,0.00179812,-0.00113529,0.00351243,0.00022
 305,0.00072754,-0.00664891,0.00080300,0.19143048,-0.17396257,0.5017013
 1,0.00009925,0.00011017,-0.00007307,0.00024424,-0.00009417,0.00007054,
 -0.00018646,-0.00001748,0.00011229,0.00001800,-0.00001841,-0.00000855,
 -0.00033581,0.00022904,0.00045497,-0.00002137,0.00015451,0.00002564,0.
 00010962,-0.00030478,-0.00006981,-0.00005812,0.00005034,0.00002553,0.0
 0029975,0.00062382,0.00001574,0.00009350,0.00043853,0.00014243,-0.0006
 0075,0.00046804,-0.00055675,0.00013761,-0.00081614,0.00002835,-0.00005
 293,0.00009480,-0.00002409,0.00028701,-0.00037441,-0.00003838,0.000294
 73,0.00014053,0.00019733,-0.00048954,0.00009170,0.00000023,0.00002945,
 0.00000911,-0.00000715,0.00003922,-0.00010414,-0.00154070,0.01220384,-
 0.01943083,0.00877119,0.00232710,-0.00218100,0.00100508,-0.02224161,0.
 00200451,-0.03700730,0.00066781,0.00021247,-0.00126505,0.00011339,-0.0
 0061030,-0.00027179,0.00050494,0.00124094,0.00041817,-0.08498657,0.057
 45292,-0.06115843,0.09251736,0.00036603,0.00007823,-0.00019819,0.00062
 804,-0.00039640,0.00038090,-0.00067325,0.00019558,0.00017896,0.0000578
 3,-0.00007342,-0.00000656,-0.00033959,0.00028395,0.00010124,0.00012426
 ,0.00028609,-0.00017824,0.00006897,-0.00044467,0.00007495,-0.00000102,
 0.00004054,0.00000566,0.00041471,0.00056077,0.00084055,0.00010136,0.00
 025816,0.00011235,-0.00045210,0.00032866,-0.00024530,0.00001042,-0.000
 49739,-0.00003238,-0.00000683,0.00006663,-0.00002905,0.00040262,-0.000
 40322,-0.00031988,0.00026051,0.00006235,0.00001528,-0.00049064,0.00010
 158,0.00012125,0.00004170,-0.00004117,-0.00003551,-0.00106407,0.002342
 28,-0.00208919,-0.00356576,-0.03091650,0.03498281,-0.00042835,-0.00012
 893,0.00084061,-0.01446394,0.01209810,-0.00820700,0.00070899,0.0000224
 2,-0.00009287,-0.00016436,-0.00045648,0.00012198,0.00084567,0.00079864
 ,-0.00014722,0.05783934,-0.11007416,0.08514757,-0.03880143,0.12668424,
 0.00015843,0.00014350,-0.00015813,0.00009584,-0.00000412,0.00005119,-0
 .00021728,0.00000210,0.00011758,0.00000932,-0.00000401,-0.00002452,-0.
 00069119,0.00033389,0.00036343,-0.00006655,0.00017172,0.00000338,0.000
 13723,-0.00036856,-0.00010159,-0.00004659,0.00004715,0.00006203,0.0002
 6894,-0.00005681,0.00023076,-0.00007272,0.00010880,-0.00000365,-0.0003
 9250,0.00017905,-0.00011946,0.00010018,-0.00027962,0.00005516,-0.00001
 021,0.00004176,-0.00004655,-0.00012309,0.00045785,0.00009122,-0.000080
 26,0.00011276,0.00005952,0.00018953,-0.00017194,-0.00017870,-0.0000013
 1,0.00001192,0.00004435,-0.00078349,-0.00048876,0.00173483,-0.00317104
 ,0.02008167,0.00114036,0.00097391,-0.00017506,0.00180199,-0.02613738,0
 .00579972,-0.00924941,0.00054444,-0.00017597,-0.00027252,0.00025359,-0
 .00050228,0.00004607,-0.00047884,0.00099448,-0.00070697,-0.06069147,0.
 08519635,-0.18434685,0.09056378,-0.11135477,0.18951561,-0.00640306,-0.
 00193645,0.00391941,-0.00619498,0.00693440,-0.00110655,0.01013080,-0.0
 0302352,-0.00171830,-0.00051246,0.00022141,-0.00009080,0.00479697,-0.0
 0368235,-0.00448222,-0.00098444,-0.00455021,0.00166060,-0.00203805,0.0
 0752103,-0.00006491,0.00042424,-0.00071177,-0.00012851,-0.19017282,-0.
 14928867,-0.06547108,-0.00199596,-0.00724241,-0.00221536,0.00788670,-0
 .00759941,0.00166370,-0.00300237,0.01154742,-0.00166174,0.00010501,-0.
 00053045,0.00032220,-0.00481958,0.00229269,0.00274765,-0.00331176,-0.0
 0192931,-0.00126815,0.00575391,-0.00024860,0.00020515,-0.00047390,0.00
 029893,-0.00000487,0.00934624,-0.02220116,-0.02310556,-0.00744555,-0.0
 1057761,0.00913102,-0.02301921,0.02835487,0.04520261,-0.01410470,-0.00
 534432,-0.01462157,-0.38357544,-0.10359024,0.09619569,0.00103330,0.010
 75848,0.00013744,-0.00935320,-0.01585467,-0.00028766,0.01736670,0.0158
 9546,0.00152466,-0.00100936,-0.00075824,-0.00044917,0.68496807,-0.0045
 9605,-0.00073136,0.00253146,-0.00404868,0.00566933,-0.00060986,0.00744
 091,-0.00335086,-0.00057160,-0.00035766,0.00015291,-0.00020456,0.00352
 926,-0.00181431,-0.00290883,-0.00113299,-0.00344537,0.00160093,-0.0012
 7594,0.00546974,-0.00016189,0.00017702,-0.00050181,-0.00005105,-0.1783
 8054,-0.35621982,-0.16062567,-0.00212314,-0.00534563,-0.00178476,0.005
 83221,-0.00611003,0.00125312,-0.00090342,0.00831669,-0.00075295,0.0000
 1437,-0.00041321,0.00017187,-0.00249813,0.00139401,0.00177190,-0.00175
 613,-0.00077201,-0.00026445,0.00312373,-0.00052140,-0.00033218,-0.0002
 1369,0.00022545,0.00004029,0.00274525,-0.02450895,-0.02220868,-0.00489
 616,-0.00722608,0.00762361,0.00001986,0.01631103,0.01590407,-0.0092260
 3,-0.00433465,-0.00810365,-0.07162120,-0.11231605,-0.00070859,0.002573
 50,0.00547679,-0.00052177,-0.00854680,-0.00650988,0.00272247,0.0109463
 1,0.01196187,-0.00048190,-0.00052660,-0.00064110,-0.00016109,0.1942733
 7,0.58978552,-0.00037480,0.00045360,-0.00020376,-0.00065314,0.00164124
 ,-0.00056856,0.00071700,-0.00072801,0.00064233,-0.00004617,0.00010240,
 -0.00017028,0.00027447,0.00066440,0.00005830,-0.00029168,-0.00014548,0
 .00029072,0.00007894,0.00012076,-0.00010326,-0.00008248,-0.00003067,0.
 00001306,-0.09228783,-0.17684988,-0.17595684,-0.00038549,0.00005889,-0
 .00044653,-0.00103332,0.00026824,-0.00035734,0.00055941,-0.00031437,0.
 00081959,-0.00009365,-0.00002029,-0.00009704,0.00026456,0.00018664,-0.
 00002726,0.00008197,0.00033510,0.00029898,-0.00010037,-0.00037599,-0.0
 0039276,0.00005837,0.00000874,0.00004849,-0.00179741,-0.00980352,-0.00
 629449,0.00022416,0.00078927,0.00109037,0.01724945,-0.00308262,-0.0097
 6403,-0.00134286,-0.00017956,0.00148767,0.12960102,0.01973702,-0.12677
 549,0.00111502,-0.00103800,0.00007971,-0.00276175,0.00277644,0.0013497
 0,-0.00117212,0.00024851,-0.00384640,0.00015829,-0.00016793,0.00002105
 ,-0.11611007,0.24518830,0.50033224,0.00030057,0.00015362,-0.00024944,0
 .00030116,-0.00032084,0.00004889,-0.00050032,0.00011567,0.00016677,0.0
 0003636,-0.00000899,-0.00000578,-0.00074129,0.00022974,0.00062199,0.00
 005459,0.00051738,-0.00020463,0.00029570,-0.00087390,-0.00001482,-0.00
 005134,0.00008904,0.00002909,0.00958315,-0.02153492,-0.01383352,0.0000
 4296,0.00034979,0.00001907,-0.00064822,0.00056502,-0.00047530,0.000124
 84,-0.00059721,0.00013140,-0.00005458,0.00007069,-0.00004866,0.0003757
 0,-0.00015057,-0.00016763,0.00019444,0.00014234,0.00008204,-0.00034702
 ,-0.00003711,-0.00006006,0.00003702,-0.00001828,0.00000014,-0.00019009
 ,0.00064830,0.00136953,0.00031473,0.00071063,-0.00023929,0.00122249,-0
 .00194187,-0.00162974,0.00097934,0.00026155,0.00118799,-0.03124861,0.0
 0514951,0.03572685,0.00008661,-0.00080317,0.00015101,0.00073726,0.0013
 1753,-0.00032586,-0.00093540,-0.00082222,-0.00021230,0.00013994,0.0000
 1914,0.00003550,-0.08577538,0.05983870,0.06802502,0.10600130,0.0000995
 8,0.00001082,0.00001274,0.00022452,-0.00015695,0.00027624,-0.00020463,
 0.00007118,-0.00003210,0.00002623,-0.00004896,0.00001435,-0.00033960,0
 .00009053,0.00014176,0.00006286,0.00016481,-0.00010276,0.00002856,-0.0
 0030537,0.00005219,0.00000143,0.00004000,0.00001898,-0.00457723,-0.022
 24479,-0.03511928,0.00013473,0.00027095,0.00015740,-0.00032593,0.00030
 077,-0.00001497,0.00003671,-0.00041664,0.00000222,0.00001257,0.0000268
 0,-0.00000954,0.00045757,-0.00029378,-0.00028057,0.00026851,0.00006849
 ,0.00009257,-0.00051367,0.00007972,-0.00000450,0.00004717,-0.00003588,
 -0.00001320,-0.00081151,0.00297544,0.00085130,0.00035534,0.00033862,-0
 .00089536,-0.00086695,0.00052897,-0.00094658,0.00056817,0.00002589,-0.
 00018856,-0.01095076,0.01351838,0.00279629,-0.00014681,-0.00029084,-0.
 00017518,0.00071989,0.00040059,0.00024203,-0.00050073,-0.00071340,0.00
 015013,-0.00006104,0.00013393,0.00003164,0.05972360,-0.11210139,-0.080
 49017,-0.04301160,0.11778105,0.00003649,-0.00012115,0.00005475,0.00012
 094,-0.00038512,0.00016370,-0.00013631,0.00012773,-0.00009520,0.000022
 65,-0.00002769,0.00004425,0.00017644,-0.00006518,-0.00002341,0.0001035
 3,0.00002789,-0.00005293,-0.00005194,0.00003357,0.00003579,0.00000642,
 -0.00001563,-0.00003071,0.00061916,-0.02616808,-0.00537317,0.00003283,
 -0.00019453,0.00000394,0.00067022,-0.00036919,0.00017367,-0.00013114,0
 .00038170,-0.00017302,0.00002194,-0.00002271,0.00005778,0.00010093,-0.
 00011440,-0.00005452,-0.00004393,-0.00009307,-0.00008530,0.00001322,0.
 00003365,0.00004426,0.00000463,-0.00001196,-0.00002396,0.00048150,0.00
 115382,0.00176763,-0.00006449,0.00032317,-0.00009151,-0.00045510,-0.00
 032794,0.00205188,-0.00019840,0.00033085,0.00017496,0.01953078,-0.0077
 2646,-0.00130273,-0.00019054,0.00031137,0.00006728,0.00068965,-0.00062
 075,-0.00070462,-0.00005256,-0.00022789,0.00003900,0.00001907,-0.00000
 479,-0.00007137,0.06908223,-0.07956267,-0.18217714,-0.09008927,0.11348
 306,0.18565803,0.00263857,-0.00049951,-0.00097805,0.00266736,-0.002672
 16,0.00257332,-0.00347544,0.00283900,-0.00106084,0.00014293,-0.0001337
 9,0.00019238,0.00033206,0.00032321,-0.00007653,0.00059208,0.00048145,-
 0.00056884,-0.00026276,-0.00061756,0.00042318,0.00004313,0.00003213,-0
 .00009427,0.00227879,0.00573211,0.00288423,0.00046473,0.00038149,0.000
 41701,0.00045423,0.00030237,0.00015178,-0.00034997,-0.00041076,-0.0003
 6242,0.00005148,0.00002755,0.00007859,0.00316407,-0.00336907,-0.003127
 56,0.00322427,0.00003568,0.00050396,-0.00440337,0.00241767,0.00200598,
 0.00020798,-0.00020169,-0.00022767,-0.06691070,-0.00792581,0.00026483,
 0.00225428,0.00641207,-0.00414077,-0.00117046,-0.00122886,0.00001015,0
 .00182764,0.00193430,0.00103462,0.00208691,0.00135584,-0.00028594,-0.0
 0239665,0.00006595,-0.00008179,0.00479101,-0.00026032,0.00021222,-0.00
 161042,-0.00480726,0.00066806,0.00018259,0.00064234,-0.00042532,-0.001
 99602,-0.00326392,-0.00140895,0.00021873,0.00042978,0.00043977,0.94971
 084,-0.00234052,-0.00050985,0.00162685,-0.00389029,-0.00029239,0.00123
 644,0.00215036,-0.00076116,-0.00045354,0.00011264,-0.00017959,0.000479
 48,0.00003451,0.00121198,-0.00067913,0.00149606,0.00197770,-0.00185834
 ,-0.00040897,-0.00230644,0.00107360,0.00019899,0.00024743,-0.00022685,
 -0.00474326,-0.00068641,0.00090021,0.00163099,0.00207531,0.00167238,0.
 00033357,0.00127051,0.00063746,-0.00067117,-0.00218214,-0.00078180,0.0
 0021753,0.00025473,0.00021786,-0.00427269,0.00079463,-0.00012267,-0.00
 416605,-0.00094177,-0.00180196,0.00381839,-0.00097026,-0.00050475,0.00
 000448,-0.00022119,-0.00042600,0.06310704,0.00982096,-0.00036417,-0.00
 645762,-0.00056039,-0.00183243,0.00016510,-0.00707905,-0.00001536,-0.0
 0338636,0.00016338,-0.00292452,-0.00358458,0.00003507,0.00200263,0.001
 00590,-0.00256038,0.00089915,-0.00281943,0.00578520,-0.00011939,0.0031
 2610,0.00174265,0.00126233,0.00004665,0.00053492,-0.00038812,0.0027782
 5,0.00152580,-0.00013284,0.00006539,0.00042661,0.00035012,0.20160899,-
 0.01486154,0.00076994,0.00003284,-0.00073310,0.00024955,-0.00047898,0.
 00055489,-0.00086249,0.00063192,-0.00001573,0.00000522,0.00009250,-0.0
 0004621,0.00000694,-0.00022567,0.00012601,-0.00023520,-0.00031638,0.00
 031607,0.00006326,0.00038731,-0.00017198,-0.00003617,-0.00004119,0.000
 03593,0.00127714,-0.00037609,-0.00069829,-0.00028493,-0.00034656,-0.00
 028212,-0.00005727,-0.00018204,-0.00009652,0.00011656,0.00035905,0.000
 12911,-0.00003381,-0.00004500,-0.00003938,0.00146781,0.00021560,0.0005
 3798,0.00051809,0.00016894,-0.00004622,-0.00031521,-0.00008616,-0.0000
 3867,-0.00001697,-0.00001705,0.00010903,-0.01432575,-0.00213896,0.0005
 5092,0.00087683,0.00049211,0.00012341,0.00008319,0.00115241,-0.0002499
 5,0.00083092,0.00000456,0.00073131,0.00029984,0.00004605,-0.00017451,-
 0.00023791,0.00044610,0.00035560,0.00068236,-0.00102713,-0.00024229,-0
 .00110369,-0.00057594,-0.00044823,0.00002982,-0.00001318,0.00005512,0.
 00010190,-0.00006535,-0.00000800,-0.00006709,-0.00015503,-0.00007410,0
 .00253993,0.01185100,0.00015009,-0.00095560,0.00044481,0.00010188,-0.0
 0125255,0.00231074,-0.00261826,0.00182707,-0.00146147,0.00048381,-0.00
 019971,0.00029867,-0.00030465,-0.00014925,-0.00079084,0.00037252,-0.00
 107178,-0.00123209,0.00117346,0.00032897,0.00149003,-0.00074656,-0.000
 11633,-0.00012977,0.00015968,0.00099735,-0.00347490,-0.00188052,-0.001
 07040,-0.00117741,-0.00096565,-0.00038083,-0.00080349,-0.00036746,0.00
 051591,0.00127816,0.00057209,-0.00012459,-0.00012884,-0.00015069,-0.00
 115050,0.00231073,0.00252511,-0.00053207,0.00034916,0.00037894,0.00152
 556,-0.00105244,-0.00093526,-0.00020055,0.00029134,0.00035418,0.008276
 77,0.00639785,-0.00118892,0.00181466,-0.00309690,0.00273514,0.00023743
 ,0.00441400,-0.00021408,0.00110599,-0.00088208,0.00128646,0.00069764,-
 0.00070951,-0.00089450,0.00128972,0.00116710,-0.00034768,-0.00252771,-
 0.00306162,0.00003522,-0.00094192,0.00091700,-0.00090185,-0.00011719,-
 0.00068306,0.00042044,-0.00020927,0.00082750,0.00067422,-0.00019578,-0
 .00048936,-0.00044833,-1.08670063,-0.12718505,-0.02261021,1.20168083,0
 .00018748,0.00020306,-0.00023374,0.00042647,0.00076500,-0.00114213,0.0
 0010312,-0.00025082,0.00016178,-0.00008692,0.00011655,-0.00018060,-0.0
 0005657,-0.00042886,0.00023419,-0.00056574,-0.00071240,0.00065812,0.00
 016836,0.00082130,-0.00039967,-0.00006902,-0.00008272,0.00008688,0.001
 26028,-0.00059596,-0.00067609,-0.00060608,-0.00072835,-0.00058259,-0.0
 0016269,-0.00044962,-0.00022129,0.00026350,0.00076778,0.00029824,-0.00
 007564,-0.00008472,-0.00008287,0.00060995,0.00039294,0.00067674,0.0007
 4243,0.00025950,0.00044041,-0.00038499,-0.00002115,-0.00008154,-0.0000
 5363,0.00011683,0.00017731,-0.01226108,-0.00078363,-0.00000530,0.00175
 470,-0.00073501,0.00116707,0.00010845,0.00247087,0.00000481,0.00084403
 ,-0.00027953,0.00084759,0.00093434,-0.00014987,-0.00064169,0.00014371,
 0.00092313,-0.00030573,0.00010296,-0.00180973,0.00002111,-0.00079424,-
 0.00002449,-0.00044448,-0.00003311,-0.00028415,0.00016856,-0.00065903,
 -0.00015977,0.00015776,-0.00005494,-0.00020855,-0.00016612,-0.07720899
 ,-0.02985629,0.00204407,0.05944721,0.02563156,-0.00017943,0.00002109,0
 .00019434,-0.00009957,0.00018685,-0.00028704,0.00016798,-0.00019542,0.
 00001052,-0.00000478,-0.00002075,0.00000696,-0.00000599,0.00006195,-0.
 00004422,0.00005456,0.00007806,-0.00007761,-0.00001132,-0.00009501,0.0
 0004059,0.00000996,0.00000829,-0.00000789,-0.00002195,0.00054499,0.000
 41769,0.00006284,0.00006600,0.00005604,0.00002720,0.00002631,0.0000076
 6,-0.00003361,-0.00006376,-0.00003132,0.00000570,0.00001060,0.00000980
 ,-0.00022421,-0.00022697,-0.00042369,-0.00001157,-0.00005255,0.0000673
 9,-0.00003253,0.00011426,0.00005726,0.00001908,-0.00000294,-0.00003681
 ,0.00259233,0.00051119,0.00057396,-0.00033036,-0.00046373,0.00005430,-
 0.00004649,-0.00023438,0.00034643,-0.00049135,-0.00016212,-0.00039162,
 0.00036796,0.00013460,-0.00014452,0.00002263,-0.00010843,-0.00013218,-
 0.00012817,0.00017692,0.00005129,0.00057318,0.00057091,0.00012171,-0.0
 0001967,-0.00000106,0.00000052,-0.00048287,-0.00045737,-0.00013725,0.0
 0002766,0.00005302,0.00003079,-0.03199681,-0.00010903,-0.00243104,0.04
 020921,-0.00212219,0.00283644,-0.00502268,0.00057761,0.00250198,-0.009
 74420,0.00680364,-0.00705249,0.00621493,-0.00466372,0.00036570,-0.0003
 8596,0.00041349,0.00001948,-0.00067042,0.00076772,-0.00017296,0.000349
 34,0.00121574,-0.00085918,0.00022177,-0.00144797,0.00024379,0.00008120
 ,0.00017588,-0.00003539,-0.00578456,-0.00963010,-0.00500596,0.00059006
 ,0.00138232,0.00084647,-0.00056419,0.00081262,0.00006922,0.00008304,-0
 .00155534,-0.00004698,0.00008512,0.00018923,0.00004015,-0.00959593,0.0
 0834752,0.00693713,-0.00670810,-0.00035523,-0.00181309,0.00771561,-0.0
 0359181,-0.00234352,-0.00055580,0.00028335,0.00018063,-0.06142132,-0.0
 0919717,0.00041096,-0.00733291,-0.01011938,0.00653600,0.00212658,-0.00
 317192,0.00007540,-0.00446765,-0.00151978,-0.00309740,-0.00451206,-0.0
 0118204,0.00166062,0.00474611,-0.00328457,0.00063470,-0.01068527,0.003
 51129,-0.00004046,0.00479775,0.00577852,0.00105118,-0.00020963,-0.0006
 3929,0.00008725,0.00458556,0.00402508,0.00086019,-0.00035884,-0.000397
 39,-0.00031042,0.19194274,-0.11797494,0.03026738,-0.12240123,0.0259756
 7,-0.01001962,0.02688095,0.00337635,0.00066325,-0.00250277,0.00767116,
 -0.00108223,0.00209387,-0.00383410,0.00159120,0.00122574,-0.00004118,-
 0.00006745,-0.00039915,-0.00042086,-0.00049916,0.00056015,-0.00086881,
 -0.00074296,0.00117519,0.00046260,0.00091254,-0.00072730,-0.00014413,-
 0.00013119,0.00015148,-0.00093821,-0.00441003,-0.00431497,-0.00079073,
 -0.00083664,-0.00103880,-0.00065683,-0.00047155,-0.00065557,0.00059942
 ,0.00069823,0.00059351,-0.00016185,-0.00013014,-0.00013690,0.00765671,
 -0.00205374,-0.00282670,0.00480532,0.00093355,0.00202316,-0.00454150,0
 .00135658,0.00047745,0.00005143,0.00002434,0.00026476,-0.06285892,-0.0
 2090703,0.00122306,-0.00026887,-0.00417994,0.00559409,0.00101603,0.003
 69402,0.00004447,0.00066903,-0.00080462,0.00072820,0.00052377,-0.00074
 852,-0.00069067,-0.00153096,-0.00070420,-0.00055380,0.00150290,-0.0031
 5621,-0.00000687,-0.00080690,0.00123405,-0.00046256,0.00000574,-0.0005
 1949,0.00024820,-0.00087148,0.00073453,0.00062202,-0.00006840,-0.00043
 700,-0.00033162,-0.12242223,0.03610198,-0.01183375,0.06441452,0.005177
 09,0.00175068,0.10847098,-0.01123927,-0.00254418,-0.00000720,0.0019410
 5,-0.00487530,0.00333512,-0.00297771,0.00273114,-0.00177237,-0.0003293
 6,-0.00008738,0.00003639,-0.00001410,0.00004662,0.00016064,0.00004178,
 0.00021942,0.00019271,-0.00015380,-0.00010092,-0.00029768,0.00014859,0
 .00001103,0.00002641,-0.00003527,-0.00389808,-0.00442306,-0.00142582,0
 .00019562,0.00025239,0.00035529,0.00005014,0.00012183,0.00022403,-0.00
 006659,-0.00025040,-0.00010954,0.00004832,0.00003557,0.00002462,0.0022
 8878,-0.00286784,-0.00212621,0.00145643,0.00008321,0.00064856,-0.00152
 384,0.00087173,0.00083227,0.00004965,-0.00000478,-0.00015974,0.0112094
 6,0.00256451,-0.00664951,0.00366269,0.00558392,-0.00340457,-0.00017805
 ,-0.00086293,-0.00164275,0.00146848,0.00114021,0.00092339,-0.00229673,
 -0.00074248,0.00087814,0.00022645,-0.00009049,-0.00189553,-0.00042509,
 0.00074851,0.00042039,-0.00058318,-0.00219385,0.00004019,0.00000228,0.
 00019901,-0.00011446,0.00137515,0.00173087,0.00079422,0.00000044,0.000
 05189,-0.00003400,0.03043574,-0.01146863,0.00202087,-0.01690774,0.0001
 4138,-0.00073849,-0.02199076,0.00770541,0.01251745\\0.00000072,-0.0000
 0025,-0.00000072,0.00000116,0.00000054,0.00000152,0.00000053,0.0000007
 8,0.00000034,0.00000053,0.,0.00000048,-0.00000101,-0.00000078,-0.00000
 264,-0.00000168,-0.00000093,-0.00000298,-0.00000102,-0.00000211,-0.000
 00305,-0.00000099,-0.00000053,-0.00000129,0.00000223,0.00000128,0.0000
 0195,0.00000102,-0.00000099,-0.00000312,0.00000171,-0.00000083,-0.0000
 0303,0.00000221,-0.00000082,-0.00000246,0.00000084,-0.00000052,-0.0000
 0163,-0.00000190,0.00000023,0.00000140,-0.00000261,-0.00000051,-0.0000
 0064,-0.00000263,-0.00000012,0.00000062,-0.00000139,0.,0.00000030,-0.0
 0000006,0.00000118,0.00000319,-0.00000069,0.00000154,0.00000156,0.0000
 0110,-0.00000088,-0.00000230,-0.00000017,0.,0.00000006,0.00000293,0.00
 000022,-0.00000046,-0.00000101,-0.00000132,-0.00000297,0.00000009,0.00
 000009,-0.00000041,-0.00000188,-0.00000082,0.00000079,-0.00000049,0.00
 000008,0.00000071,0.00000175,-0.00000001,0.00000049,0.00000128,0.00000
 043,0.00000064,-0.00000148,0.00000178,0.00000444,0.00000135,0.00000196
 ,0.00000541,-0.00000043,0.00000133,0.00000380\\\@
 The archive entry for this job was punched.


 Not by the face shall a man be known, but by the mask.
                               -- Karen Blixen
 Job cpu time:       1 days  6 hours 35 minutes 52.8 seconds.
 Elapsed time:       0 days 15 hours 27 minutes 12.7 seconds.
 File lengths (MBytes):  RWF=   4364 Int=      0 D2E=      0 Chk=    124 Scr=      1
 Normal termination of Gaussian 16 at Wed Feb  8 00:55:56 2023.
