 Entering Gaussian System, Link 0=g16
 Input=FeFeFe-TS1-0xH2O-counterpoise-opt.gjf
 Output=FeFeFe-TS1-0xH2O-counterpoise-opt.log
 AtFile(1): /zfs/curium/svicchi/00-MOF/01-Gaussian/zw-basis-set/def2-TZVP/H.gbs
            !----------------------------------------------------------------------
            ! Basis Set Exchange
            ! Version v0.9
            ! https://www.basissetexchange.org
            !----------------------------------------------------------------------
            !   Basis set: def2-TZVP
            ! Description: def2-TZVP
            !        Role: orbital
            !     Version: 1  (Data from Turbomole 7.3)
            !----------------------------------------------------------------------
            H     0
            S    3   1.00
                 34.0613410              0.60251978D-02
                  5.1235746              0.45021094D-01
                  1.1646626              0.20189726
            S    1   1.00
                  0.32723041             1.0000000
            S    1   1.00
                  0.10307241             1.0000000
            P    1   1.00
                  0.8000000              1.0000000
 AtFile(1): /zfs/curium/svicchi/00-MOF/01-Gaussian/zw-basis-set/def2-TZVP/O.gbs
            !----------------------------------------------------------------------
            ! Basis Set Exchange
            ! Version v0.9
            ! https://www.basissetexchange.org
            !----------------------------------------------------------------------
            !   Basis set: def2-TZVP
            ! Description: def2-TZVP
            !        Role: orbital
            !     Version: 1  (Data from Turbomole 7.3)
            !----------------------------------------------------------------------
            O     0
            S    6   1.00
              27032.3826310              0.21726302465D-03
               4052.3871392              0.16838662199D-02
                922.32722710             0.87395616265D-02
                261.24070989             0.35239968808D-01
                 85.354641351            0.11153519115
                 31.035035245            0.25588953961
            S    2   1.00
                 12.260860728            0.39768730901
                  4.9987076005           0.24627849430
            S    1   1.00
                  1.1703108158           1.0000000
            S    1   1.00
                  0.46474740994          1.0000000
            S    1   1.00
                  0.18504536357          1.0000000
            P    4   1.00
                 63.274954801            0.60685103418D-02
                 14.627049379            0.41912575824D-01
                  4.4501223456           0.16153841088
                  1.5275799647           0.35706951311
            P    1   1.00
                  0.52935117943           .44794207502
            P    1   1.00
                  0.17478421270           .24446069663
            D    1   1.00
                  2.31400000             1.0000000
            D    1   1.00
                  0.64500000             1.0000000
            F    1   1.00
                  1.42800000             1.0000000
 AtFile(1): /zfs/curium/svicchi/00-MOF/01-Gaussian/zw-basis-set/def2-TZVP/C.gbs
            !----------------------------------------------------------------------
            ! Basis Set Exchange
            ! Version v0.9
            ! https://www.basissetexchange.org
            !----------------------------------------------------------------------
            !   Basis set: def2-TZVP
            ! Description: def2-TZVP
            !        Role: orbital
            !     Version: 1  (Data from Turbomole 7.3)
            !----------------------------------------------------------------------
            C     0
            S    6   1.00
              13575.3496820              0.22245814352D-03
               2035.2333680              0.17232738252D-02
                463.22562359             0.89255715314D-02
                131.20019598             0.35727984502D-01
                 42.853015891            0.11076259931
                 15.584185766            0.24295627626
            S    2   1.00
                  6.2067138508           0.41440263448
                  2.5764896527           0.23744968655
            S    1   1.00
                  0.57696339419          1.0000000
            S    1   1.00
                  0.22972831358          1.0000000
            S    1   1.00
                  0.95164440028D-01      1.0000000
            P    4   1.00
                 34.697232244            0.53333657805D-02
                  7.9582622826           0.35864109092D-01
                  2.3780826883           0.14215873329
                  0.81433208183          0.34270471845
            P    1   1.00
                  0.28887547253           .46445822433
            P    1   1.00
                  0.10056823671           .24955789874
            D    1   1.00
                  1.09700000             1.0000000
            D    1   1.00
                  0.31800000             1.0000000
            F    1   1.00
                  0.76100000             1.0000000
 AtFile(1): /zfs/curium/svicchi/00-MOF/01-Gaussian/zw-basis-set/def2-TZVP/Fe.gbs
            !----------------------------------------------------------------------
            ! Basis Set Exchange
            ! Version v0.9
            ! https://www.basissetexchange.org
            !----------------------------------------------------------------------
            !   Basis set: def2-TZVP
            ! Description: def2-TZVP
            !        Role: orbital
            !     Version: 1  (Data from Turbomole 7.3)
            !----------------------------------------------------------------------
            Fe     0
            S    8   1.00
             300784.8463700              0.22806273096D-03
              45088.9705570              0.17681788761D-02
              10262.5163170              0.91927083490D-02
               2905.2897293              0.37355495807D-01
                946.11487137             0.12151108426
                339.87832894             0.28818881468
                131.94425588             0.41126612677
                 52.111494077            0.21518583573
            S    4   1.00
                329.48839267            -0.24745216477D-01
                101.92332739            -0.11683089050
                 16.240462745            0.55293621136
                  6.8840675801           0.53601640182
            S    2   1.00
                 10.470693782           -0.22912708577
                  1.7360039648           0.71159319984
            S    1   1.00
                  0.72577288979          1.0000000
            S    1   1.00
                  0.11595528203          1.0000000
            S    1   1.00
                  0.41968227746D-01      1.0000000
            P    6   1.00
               1585.3959970              0.23793960179D-02
                375.38006499             0.19253154755D-01
                120.31816501             0.90021836536D-01
                 44.788749031            0.25798172356
                 17.829278584            0.41492649744
                  7.2247153786           0.24207474784
            P    3   1.00
                 28.143219756           -0.29041755152D-01
                  3.8743241412           0.55312260343
                  1.5410752281           0.96771136842
            P    1   1.00
                  0.58285615250          1.0000000
            P    1   1.00
                  0.1349150              1.0000000
            D    4   1.00
                 61.996675034            0.11971972255D-01
                 17.873732552            0.73210135410D-01
                  6.2744782934           0.23103094314
                  2.3552337175           0.39910706494
            D    1   1.00
                  0.85432239901           .41391589765
            D    1   1.00
                  0.27869254413           .21909269782
            D    1   1.00
                  0.0910000              1.0000000
            F    1   1.00
                  1.5980000              1.0000000
 AtFile(1): /zfs/curium/svicchi/00-MOF/01-Gaussian/zw-basis-set/def2-TZVP/N.gbs
            !----------------------------------------------------------------------
            ! Basis Set Exchange
            ! Version v0.9
            ! https://www.basissetexchange.org
            !----------------------------------------------------------------------
            !   Basis set: def2-TZVP
            ! Description: def2-TZVP
            !        Role: orbital
            !     Version: 1  (Data from Turbomole 7.3)
            !----------------------------------------------------------------------
            N     0
            S    6   1.00
              19730.8006470              0.21887984991D-03
               2957.8958745              0.16960708803D-02
                673.22133595             0.87954603538D-02
                190.68249494             0.35359382605D-01
                 62.295441898            0.11095789217
                 22.654161182            0.24982972552
            S    2   1.00
                  8.9791477428           0.40623896148
                  3.6863002370           0.24338217176
            S    1   1.00
                  0.84660076805          1.0000000
            S    1   1.00
                  0.33647133771          1.0000000
            S    1   1.00
                  0.13647653675          1.0000000
            P    4   1.00
                 49.200380510            0.55552416751D-02
                 11.346790537            0.38052379723D-01
                  3.4273972411           0.14953671029
                  1.1785525134           0.34949305230
            P    1   1.00
                  0.41642204972           .45843153697
            P    1   1.00
                  0.14260826011           .24428771672
            D    1   1.00
                  1.65400000             1.0000000
            D    1   1.00
                  0.46900000             1.0000000
            F    1   1.00
                  1.09300000             1.0000000
 Initial command:
 /software/commercial/gaussian/g16/AVX2/g16/l1.exe "/scratch1/svicchi/G09-60716.pbs02/Gau-2739072.inp" -scrdir="/scratch1/svicchi/G09-60716.pbs02/"
 Entering Link 1 = /software/commercial/gaussian/g16/AVX2/g16/l1.exe PID=   2739073.
  
 Copyright (c) 1988-2021, Gaussian, Inc.  All Rights Reserved.
  
 This is part of the Gaussian(R) 16 program.  It is based on
 the Gaussian(R) 09 system (copyright 2009, Gaussian, Inc.),
 the Gaussian(R) 03 system (copyright 2003, Gaussian, Inc.),
 the Gaussian(R) 98 system (copyright 1998, Gaussian, Inc.),
 the Gaussian(R) 94 system (copyright 1995, Gaussian, Inc.),
 the Gaussian 92(TM) system (copyright 1992, Gaussian, Inc.),
 the Gaussian 90(TM) system (copyright 1990, Gaussian, Inc.),
 the Gaussian 88(TM) system (copyright 1988, Gaussian, Inc.),
 the Gaussian 86(TM) system (copyright 1986, Carnegie Mellon
 University), and the Gaussian 82(TM) system (copyright 1983,
 Carnegie Mellon University). Gaussian is a federally registered
 trademark of Gaussian, Inc.
  
 This software contains proprietary and confidential information,
 including trade secrets, belonging to Gaussian, Inc.
  
 This software is provided under written license and may be
 used, copied, transmitted, or stored only in accord with that
 written license.
  
 The following legend is applicable only to US Government
 contracts under FAR:
  
                    RESTRICTED RIGHTS LEGEND
  
 Use, reproduction and disclosure by the US Government is
 subject to restrictions as set forth in subparagraphs (a)
 and (c) of the Commercial Computer Software - Restricted
 Rights clause in FAR 52.227-19.
  
 Gaussian, Inc.
 340 Quinnipiac St., Bldg. 40, Wallingford CT 06492
  
  
 ---------------------------------------------------------------
 Warning -- This program may not be used in any manner that
 competes with the business of Gaussian, Inc. or will provide
 assistance to any competitor of Gaussian, Inc.  The licensee
 of this program is prohibited from giving any competitor of
 Gaussian, Inc. access to this program.  By using this program,
 the user acknowledges that Gaussian, Inc. is engaged in the
 business of creating and licensing software in the field of
 computational chemistry and represents and warrants to the
 licensee that it is not a competitor of Gaussian, Inc. and that
 it will not use this program in any manner prohibited above.
 ---------------------------------------------------------------
  

 Cite this work as:
 Gaussian 16, Revision C.02,
 M. J. Frisch, G. W. Trucks, H. B. Schlegel, G. E. Scuseria, 
 M. A. Robb, J. R. Cheeseman, G. Scalmani, V. Barone, 
 G. A. Petersson, H. Nakatsuji, X. Li, M. Caricato, A. V. Marenich, 
 J. Bloino, B. G. Janesko, R. Gomperts, B. Mennucci, H. P. Hratchian, 
 J. V. Ortiz, A. F. Izmaylov, J. L. Sonnenberg, D. Williams-Young, 
 F. Ding, F. Lipparini, F. Egidi, J. Goings, B. Peng, A. Petrone, 
 T. Henderson, D. Ranasinghe, V. G. Zakrzewski, J. Gao, N. Rega, 
 G. Zheng, W. Liang, M. Hada, M. Ehara, K. Toyota, R. Fukuda, 
 J. Hasegawa, M. Ishida, T. Nakajima, Y. Honda, O. Kitao, H. Nakai, 
 T. Vreven, K. Throssell, J. A. Montgomery, Jr., J. E. Peralta, 
 F. Ogliaro, M. J. Bearpark, J. J. Heyd, E. N. Brothers, K. N. Kudin, 
 V. N. Staroverov, T. A. Keith, R. Kobayashi, J. Normand, 
 K. Raghavachari, A. P. Rendell, J. C. Burant, S. S. Iyengar, 
 J. Tomasi, M. Cossi, J. M. Millam, M. Klene, C. Adamo, R. Cammi, 
 J. W. Ochterski, R. L. Martin, K. Morokuma, O. Farkas, 
 J. B. Foresman, and D. J. Fox, Gaussian, Inc., Wallingford CT, 2019.
 
 ******************************************
 Gaussian 16:  ES64L-G16RevC.02  7-Dec-2021
                23-Jan-2023 
 ******************************************
 %NProcShared=2
 Will use up to    2 processors via shared memory.
 %mem=110gb
 %chk=/scratch1/svicchi/G09-60716.pbs02/00-opt/FeFeFe-TS1-0xH2O-counterpoise-opt.
 chk
 ----------------------------------------------------------------------
 #p gen um06l int=grid=ultrafine scf=(xqc,intrep,maxconventionalcycle=1
 50) pop=(hirshfeld) nosymm counterpoise=2
 ----------------------------------------------------------------------
 1/38=1,62=2,172=1/1;
 2/12=2,15=1,17=6,18=5,40=1/2;
 1/38=1,53=2,62=2,63=1/22;
 3/5=7,11=2,25=1,30=1,74=-53,75=-5,116=2/1,2,3;
 4//1;
 5/5=2,8=3,13=1,17=20,38=5,85=150/2,8;
 6/7=2,8=2,9=2,10=2,28=1,79=1/1;
 1/53=2,62=2,63=1/22;
 3/5=7,6=11,11=2,25=1,30=1,74=-53,75=-5,82=7,116=2/1,2,3;
 4//1;
 5/5=2,8=3,13=1,17=20,38=5,85=150/2,8;
 6/7=2,8=2,9=2,10=2,28=1,79=1/1;
 1/53=2,62=2,63=1/22(-4);
 99/5=1,9=1/99;
 Leave Link    1 at Mon Jan 23 18:10:42 2023, MaxMem= 14763950080 cpu:               0.0 elap:               0.2
 (Enter /software/commercial/gaussian/g16/AVX2/g16/l101.exe)
 -----------------------------
 FeFeFe-TS1-0xH2O-counterpoise
 -----------------------------
 Symbolic Z-matrix:
 Charge =  0 Multiplicity =15 in supermolecule
 Charge =  0 Multiplicity =15 in fragment      1.
 Charge =  0 Multiplicity = 1 in fragment      2.
 O(fragment=1)        -0.82894   2.54244  -1.36609 
 O(fragment=1)         1.26337   1.73609  -1.60047 
 C(fragment=1)         0.3077    2.46725  -1.91127 
 H(fragment=1)         0.45794   3.14129  -2.77175 
 O(fragment=1)        -2.40558  -1.65608   1.47289 
 O(fragment=1)        -2.92676   0.53428   1.37329 
 C(fragment=1)        -3.04057  -0.63002   1.81833 
 H(fragment=1)        -3.78855  -0.77453   2.61554 
 O(fragment=1)         1.82047  -1.16859  -1.40965 
 O(fragment=1)        -2.9495    0.71817  -1.39245 
 O(fragment=1)        -2.56449  -1.49974  -1.28994 
 C(fragment=1)        -3.14348  -0.47737  -1.72119 
 H(fragment=1)        -3.91809  -0.64521  -2.4878 
 O(fragment=1)         1.23993   1.92963   1.33786 
 O(fragment=1)        -0.93421   2.52031   1.46085 
 C(fragment=1)         0.28041   2.56352   1.80835 
 H(fragment=1)         0.50101   3.25653   2.63799 
 Fe(fragment=1)        1.63309   0.42688  -0.04216 
 O(fragment=1)         1.87536  -0.96637   1.51108 
 Fe(fragment=1)       -1.00491  -1.73907   0.01322 
 O(fragment=1)         0.24688  -2.51841   1.34734 
 O(fragment=1)         0.0341   -2.54722  -1.46847 
 Fe(fragment=1)       -1.64488   1.36831   0.01259 
 O(fragment=1)        -0.38007   0.00033  -0.00013 
 C(fragment=1)         1.29966  -2.01827   1.83514 
 H(fragment=1)         1.75351  -2.60405   2.65334 
 C(fragment=1)         1.16854  -2.13108  -1.84513 
 H(fragment=1)         1.62077  -2.71083  -2.66826 
 N(fragment=2)         4.53453  -0.15725   0.16811 
 N(fragment=2)         5.65992  -0.14965   0.24697 
 O(fragment=1)         3.44756   0.7785   -0.06531 
 
 ITRead=  0  0  0  0  0  0  0  0  0  0  0  0  0  0  0  0  0  0  0  0
 ITRead=  0  0  0  0  0  0  0  0  0  0  0
 MicOpt= -1 -1 -1 -1 -1 -1 -1 -1 -1 -1 -1 -1 -1 -1 -1 -1 -1 -1 -1 -1
 MicOpt= -1 -1 -1 -1 -1 -1 -1 -1 -1 -1 -1
 NAtoms=     31 NQM=       31 NQMF=       0 NMMI=      0 NMMIF=      0
                NMic=       0 NMicF=      0.
                    Isotopes and Nuclear Properties:
 (Nuclear quadrupole moments (NQMom) in fm**2, nuclear magnetic moments (NMagM)
  in nuclear magnetons)

  Atom         1           2           3           4           5           6           7           8           9          10
 IAtWgt=          16          16          12           1          16          16          12           1          16          16
 AtmWgt=  15.9949146  15.9949146  12.0000000   1.0078250  15.9949146  15.9949146  12.0000000   1.0078250  15.9949146  15.9949146
 NucSpn=           0           0           0           1           0           0           0           1           0           0
 AtZEff=  -0.0000000  -0.0000000  -0.0000000  -0.0000000  -0.0000000  -0.0000000  -0.0000000  -0.0000000  -0.0000000  -0.0000000
 NQMom=    0.0000000   0.0000000   0.0000000   0.0000000   0.0000000   0.0000000   0.0000000   0.0000000   0.0000000   0.0000000
 NMagM=    0.0000000   0.0000000   0.0000000   2.7928460   0.0000000   0.0000000   0.0000000   2.7928460   0.0000000   0.0000000
 AtZNuc=   8.0000000   8.0000000   6.0000000   1.0000000   8.0000000   8.0000000   6.0000000   1.0000000   8.0000000   8.0000000

  Atom        11          12          13          14          15          16          17          18          19          20
 IAtWgt=          16          12           1          16          16          12           1          56          16          56
 AtmWgt=  15.9949146  12.0000000   1.0078250  15.9949146  15.9949146  12.0000000   1.0078250  55.9349393  15.9949146  55.9349393
 NucSpn=           0           0           1           0           0           0           1           0           0           0
 AtZEff=  -0.0000000  -0.0000000  -0.0000000  -0.0000000  -0.0000000  -0.0000000  -0.0000000  -0.0000000  -0.0000000  -0.0000000
 NQMom=    0.0000000   0.0000000   0.0000000   0.0000000   0.0000000   0.0000000   0.0000000   0.0000000   0.0000000   0.0000000
 NMagM=    0.0000000   0.0000000   2.7928460   0.0000000   0.0000000   0.0000000   2.7928460   0.0000000   0.0000000   0.0000000
 AtZNuc=   8.0000000   6.0000000   1.0000000   8.0000000   8.0000000   6.0000000   1.0000000  26.0000000   8.0000000  26.0000000

  Atom        21          22          23          24          25          26          27          28          29          30
 IAtWgt=          16          16          56          16          12           1          12           1          14          14
 AtmWgt=  15.9949146  15.9949146  55.9349393  15.9949146  12.0000000   1.0078250  12.0000000   1.0078250  14.0030740  14.0030740
 NucSpn=           0           0           0           0           0           1           0           1           2           2
 AtZEff=  -0.0000000  -0.0000000  -0.0000000  -0.0000000  -0.0000000  -0.0000000  -0.0000000  -0.0000000  -0.0000000  -0.0000000
 NQMom=    0.0000000   0.0000000   0.0000000   0.0000000   0.0000000   0.0000000   0.0000000   0.0000000   2.0440000   2.0440000
 NMagM=    0.0000000   0.0000000   0.0000000   0.0000000   0.0000000   2.7928460   0.0000000   2.7928460   0.4037610   0.4037610
 AtZNuc=   8.0000000   8.0000000  26.0000000   8.0000000   6.0000000   1.0000000   6.0000000   1.0000000   7.0000000   7.0000000

  Atom        31
 IAtWgt=          16
 AtmWgt=  15.9949146
 NucSpn=           0
 AtZEff=  -0.0000000
 NQMom=    0.0000000
 NMagM=    0.0000000
 AtZNuc=   8.0000000
 Leave Link  101 at Mon Jan 23 18:10:43 2023, MaxMem= 14763950080 cpu:               0.1 elap:               0.1
 (Enter /software/commercial/gaussian/g16/AVX2/g16/l202.exe)
                          Input orientation:                          
 ---------------------------------------------------------------------
 Center     Atomic      Atomic             Coordinates (Angstroms)
 Number     Number       Type             X           Y           Z
 ---------------------------------------------------------------------
      1          8           0       -0.828938    2.542444   -1.366094
      2          8           0        1.263366    1.736089   -1.600471
      3          6           0        0.307698    2.467253   -1.911270
      4          1           0        0.457935    3.141293   -2.771750
      5          8           0       -2.405582   -1.656080    1.472885
      6          8           0       -2.926763    0.534281    1.373294
      7          6           0       -3.040570   -0.630019    1.818326
      8          1           0       -3.788551   -0.774534    2.615536
      9          8           0        1.820472   -1.168593   -1.409645
     10          8           0       -2.949495    0.718169   -1.392449
     11          8           0       -2.564485   -1.499739   -1.289939
     12          6           0       -3.143480   -0.477373   -1.721190
     13          1           0       -3.918089   -0.645208   -2.487799
     14          8           0        1.239932    1.929633    1.337861
     15          8           0       -0.934210    2.520305    1.460850
     16          6           0        0.280405    2.563517    1.808345
     17          1           0        0.501005    3.256528    2.637985
     18         26           0        1.633086    0.426878   -0.042157
     19          8           0        1.875358   -0.966365    1.511081
     20         26           0       -1.004914   -1.739069    0.013224
     21          8           0        0.246876   -2.518411    1.347344
     22          8           0        0.034100   -2.547220   -1.468472
     23         26           0       -1.644884    1.368305    0.012590
     24          8           0       -0.380066    0.000334   -0.000126
     25          6           0        1.299659   -2.018273    1.835142
     26          1           0        1.753514   -2.604050    2.653338
     27          6           0        1.168543   -2.131084   -1.845130
     28          1           0        1.620772   -2.710834   -2.668257
     29          7           0        4.534526   -0.157252    0.168108
     30          7           0        5.659922   -0.149645    0.246968
     31          8           0        3.447560    0.778496   -0.065312
 ---------------------------------------------------------------------
                    Distance matrix (angstroms):
                    1          2          3          4          5
     1  O    0.000000
     2  O    2.254524   0.000000
     3  C    1.262859   1.242778   0.000000
     4  H    1.997631   1.998803   1.103325   0.000000
     5  O    5.307844   5.866303   5.984669   7.016512   0.000000
     6  O    3.992222   5.276817   4.998648   5.952653   2.253715
     7  C    5.009628   5.984188   5.891849   6.894282   1.255126
     8  H    5.967833   7.042713   6.912338   7.898683   1.998844
     9  O    4.559941   2.963774   3.969822   4.720906   5.138692
    10  O    2.797398   4.339082   3.733333   4.402792   3.760723
    11  O    4.399678   5.021898   4.936853   5.733233   2.771803
    12  C    3.821321   4.932979   4.540659   5.212352   3.483670
    13  H    4.578450   5.771083   5.279875   5.793773   4.358504
    14  O    3.459354   2.944793   3.422711   4.355289   5.115207
    15  O    2.828990   3.849159   3.593931   4.498733   4.428010
    16  C    3.362759   3.642921   3.720961   4.619807   5.013188
    17  H    4.279172   4.566994   4.621260   5.411134   5.825755
    18  Fe   3.505708   2.068591   3.068121   4.024886   4.790084
    19  O    5.282338   4.166479   5.095074   6.101195   4.336313
    20  Fe   4.501649   4.452620   4.808302   5.806371   2.024690
    21  O    5.842292   5.274811   5.956434   7.003123   2.791936
    22  O    5.163332   4.458167   5.041415   5.851269   3.923998
    23  Fe   1.986238   3.345915   2.953219   3.913807   3.443549
    24  O    2.920561   2.876598   3.195494   4.271975   3.002696
    25  C    5.964812   5.089203   5.927861   6.968004   3.740485
    26  H    7.022200   6.096880   6.974535   8.007438   4.426081
    27  C    5.105024   3.876065   4.678689   5.400143   4.899921
    28  H    5.940845   4.587268   5.395348   5.967436   5.871379
    29  N    6.197490   4.172901   5.392394   6.011802   7.219005
    30  N    7.207955   5.128229   6.336596   6.855917   8.296058
    31  O    4.805412   2.836265   4.014747   4.673914   6.523226
                    6          7          8          9         10
     6  O    0.000000
     7  C    1.251639   0.000000
     8  H    1.999710   1.102680   0.000000
     9  O    5.760275   5.859999   6.915092   0.000000
    10  O    2.771943   3.483530   4.358454   5.129596   0.000000
    11  O    3.370652   3.262573   4.156560   4.399072   2.253410
    12  C    3.262858   3.544300   4.394498   5.021520   1.254999
    13  H    4.157158   4.394654   5.106617   5.862374   1.999191
    14  O    4.394270   5.010525   5.850693   4.181485   5.145244
    15  O    2.814645   3.806453   4.509604   5.425494   3.930698
    16  C    3.820078   4.607347   5.324523   5.162936   4.907407
    17  H    4.556278   5.321639   5.886447   6.140521   5.881634
    18  Fe   4.775695   5.140184   6.156368   2.109660   4.786250
    19  O    5.033020   4.936991   5.773776   2.928233   5.877699
    20  Fe   3.272830   2.938074   3.930775   3.214468   3.434433
    21  O    4.403588   3.820360   4.575379   3.449522   5.310245
    22  O    5.132055   4.892065   5.868066   2.257255   4.423843
    23  Fe   2.047028   3.033467   3.995297   4.524080   2.024555
    24  O    2.942286   3.283656   4.365762   2.862779   3.009288
    25  C    4.958980   4.556876   5.295827   3.394384   5.996730
    26  H    5.778635   5.251408   5.836355   4.309623   7.037317
    27  C    5.850979   5.778472   6.805186   1.241389   5.028061
    28  H    6.895287   6.796126   7.805671   2.000623   5.854322
    29  N    7.589567   7.767162   8.697388   3.298212   7.694951
    30  N    8.687205   8.854292   9.760853   4.303951   8.806977
    31  O    6.539207   6.901292   7.871477   2.871550   6.533548
                   11         12         13         14         15
    11  O    0.000000
    12  C    1.251577   0.000000
    13  H    1.999334   1.102668   0.000000
    14  O    5.756693   5.862233   6.918863   0.000000
    15  O    5.136671   4.898196   5.875018   2.256305   0.000000
    16  C    5.848317   5.781662   6.810295   1.242520   1.264085
    17  H    6.888243   6.799022   7.811888   1.999246   1.996876
    18  Fe   4.784184   5.143190   6.160039   2.077810   3.637647
    19  O    5.276590   5.989610   7.046858   2.969945   4.478065
    20  Fe   2.046405   3.028784   3.992272   4.500375   4.499210
    21  O    3.987067   5.007619   5.963568   4.557559   5.176534
    22  O    2.807443   3.800677   4.502941   5.419571   5.932821
    23  Fe   3.281452   2.942501   3.933655   3.223910   1.982327
    24  O    2.947121   3.290398   4.372968   2.852507   2.965094
    25  C    4.996661   5.896046   6.913611   3.979550   5.072372
    26  H    5.950971   6.902159   7.901609   4.748529   5.908037
    27  C    3.826530   4.619920   5.338040   5.160034   6.081652
    28  H    4.569780   5.346343   5.914250   6.142309   7.137386
    29  N    7.370490   7.913514   8.873480   4.071580   6.224754
    30  N    8.475005   9.026679   9.973105   5.004973   7.216974
    31  O    6.544826   6.910930   7.883411   2.857907   4.956105
                   16         17         18         19         20
    16  C    0.000000
    17  H    1.103282   0.000000
    18  Fe   3.133581   4.058533   0.000000
    19  O    3.884882   4.581657   2.100564   0.000000
    20  Fe   4.835985   5.840647   3.413713   3.337157   0.000000
    21  O    5.102905   5.922859   3.539353   2.255573   1.988524
    22  O    6.076004   7.124920   3.665568   3.842795   1.981939
    23  Fe   2.891367   3.881098   3.410919   4.481993   3.172591
    24  O    3.205729   4.282373   2.058273   2.881873   1.848279
    25  C    4.693868   5.394991   3.100675   1.242158   2.950999
    26  H    5.439468   5.992945   4.057921   2.000402   3.915012
    27  C    6.014644   7.040617   3.163808   3.622197   2.886359
    28  H    7.046654   8.063466   4.091673   4.535951   3.876712
    29  N    5.309473   5.832965   2.967115   3.086975   5.762945
    30  N    6.224014   6.628228   4.078159   4.072829   6.855723
    31  O    4.089959   4.704322   1.848374   2.828670   5.115547
                   21         22         23         24         25
    21  O    0.000000
    22  O    2.823991   0.000000
    23  Fe   4.524034   4.510418   0.000000
    24  O    2.924518   2.969445   1.863135   0.000000
    25  C    1.263502   3.577050   4.843649   3.203819   0.000000
    26  H    1.995724   4.466423   5.856813   4.286706   1.103886
    27  C    3.345352   1.265702   4.859241   3.216391   3.684334
    28  H    4.248490   1.995941   5.872889   4.297989   4.567642
    29  N    5.034840   5.352025   6.366837   4.919995   4.087391
    30  N    6.010237   6.351454   7.464536   6.046900   5.002595
    31  O    4.807241   4.967993   5.127078   3.906470   4.005886
                   26         27         28         29         30
    26  H    0.000000
    27  C    4.560932   0.000000
    28  H    5.324321   1.103702   0.000000
    29  N    4.460630   4.390784   4.801636   0.000000
    30  N    5.203340   5.336240   5.601157   1.128181   0.000000
    31  O    4.658591   4.102112   4.721006   1.453136   2.419403
                   31
    31  O    0.000000
 Symmetry turned off by external request.
 Stoichiometry    C6H6Fe3N2O14(15)
 Framework group  C1[X(C6H6Fe3N2O14)]
 Deg. of freedom    87
 Full point group                 C1      NOp   1
 Rotational constants (GHZ):           0.2644778           0.1730180           0.1447895
 Leave Link  202 at Mon Jan 23 18:10:43 2023, MaxMem= 14763950080 cpu:               0.0 elap:               0.0
 (Enter /software/commercial/gaussian/g16/AVX2/g16/l122.exe)
 Counterpoise: doing full-system calculation.
 Leave Link  122 at Mon Jan 23 18:10:43 2023, MaxMem= 14763950080 cpu:               0.0 elap:               0.0
 (Enter /software/commercial/gaussian/g16/AVX2/g16/l301.exe)
 General basis read from cards:  (5D, 7F)
 Centers:       4      8     13     17     26     28
 S 3 1.00
     Exponent=  3.4061341000D+01 Coefficients=  6.0251978000D-03
     Exponent=  5.1235746000D+00 Coefficients=  4.5021094000D-02
     Exponent=  1.1646626000D+00 Coefficients=  2.0189726000D-01
 S 1 1.00
     Exponent=  3.2723041000D-01 Coefficients=  1.0000000000D+00
 S 1 1.00
     Exponent=  1.0307241000D-01 Coefficients=  1.0000000000D+00
 P 1 1.00
     Exponent=  8.0000000000D-01 Coefficients=  1.0000000000D+00
 ****
 Centers:       1      2      5      6      9     10     11     14     15     19
 Centers:      21     22     24     31
 S 6 1.00
     Exponent=  2.7032382631D+04 Coefficients=  2.1726302465D-04
     Exponent=  4.0523871392D+03 Coefficients=  1.6838662199D-03
     Exponent=  9.2232722710D+02 Coefficients=  8.7395616265D-03
     Exponent=  2.6124070989D+02 Coefficients=  3.5239968808D-02
     Exponent=  8.5354641351D+01 Coefficients=  1.1153519115D-01
     Exponent=  3.1035035245D+01 Coefficients=  2.5588953961D-01
 S 2 1.00
     Exponent=  1.2260860728D+01 Coefficients=  3.9768730901D-01
     Exponent=  4.9987076005D+00 Coefficients=  2.4627849430D-01
 S 1 1.00
     Exponent=  1.1703108158D+00 Coefficients=  1.0000000000D+00
 S 1 1.00
     Exponent=  4.6474740994D-01 Coefficients=  1.0000000000D+00
 S 1 1.00
     Exponent=  1.8504536357D-01 Coefficients=  1.0000000000D+00
 P 4 1.00
     Exponent=  6.3274954801D+01 Coefficients=  6.0685103418D-03
     Exponent=  1.4627049379D+01 Coefficients=  4.1912575824D-02
     Exponent=  4.4501223456D+00 Coefficients=  1.6153841088D-01
     Exponent=  1.5275799647D+00 Coefficients=  3.5706951311D-01
 P 1 1.00
     Exponent=  5.2935117943D-01 Coefficients=  4.4794207502D-01
 P 1 1.00
     Exponent=  1.7478421270D-01 Coefficients=  2.4446069663D-01
 D 1 1.00
     Exponent=  2.3140000000D+00 Coefficients=  1.0000000000D+00
 D 1 1.00
     Exponent=  6.4500000000D-01 Coefficients=  1.0000000000D+00
 F 1 1.00
     Exponent=  1.4280000000D+00 Coefficients=  1.0000000000D+00
 ****
 Centers:       3      7     12     16     25     27
 S 6 1.00
     Exponent=  1.3575349682D+04 Coefficients=  2.2245814352D-04
     Exponent=  2.0352333680D+03 Coefficients=  1.7232738252D-03
     Exponent=  4.6322562359D+02 Coefficients=  8.9255715314D-03
     Exponent=  1.3120019598D+02 Coefficients=  3.5727984502D-02
     Exponent=  4.2853015891D+01 Coefficients=  1.1076259931D-01
     Exponent=  1.5584185766D+01 Coefficients=  2.4295627626D-01
 S 2 1.00
     Exponent=  6.2067138508D+00 Coefficients=  4.1440263448D-01
     Exponent=  2.5764896527D+00 Coefficients=  2.3744968655D-01
 S 1 1.00
     Exponent=  5.7696339419D-01 Coefficients=  1.0000000000D+00
 S 1 1.00
     Exponent=  2.2972831358D-01 Coefficients=  1.0000000000D+00
 S 1 1.00
     Exponent=  9.5164440028D-02 Coefficients=  1.0000000000D+00
 P 4 1.00
     Exponent=  3.4697232244D+01 Coefficients=  5.3333657805D-03
     Exponent=  7.9582622826D+00 Coefficients=  3.5864109092D-02
     Exponent=  2.3780826883D+00 Coefficients=  1.4215873329D-01
     Exponent=  8.1433208183D-01 Coefficients=  3.4270471845D-01
 P 1 1.00
     Exponent=  2.8887547253D-01 Coefficients=  4.6445822433D-01
 P 1 1.00
     Exponent=  1.0056823671D-01 Coefficients=  2.4955789874D-01
 D 1 1.00
     Exponent=  1.0970000000D+00 Coefficients=  1.0000000000D+00
 D 1 1.00
     Exponent=  3.1800000000D-01 Coefficients=  1.0000000000D+00
 F 1 1.00
     Exponent=  7.6100000000D-01 Coefficients=  1.0000000000D+00
 ****
 Centers:      18     20     23
 S 8 1.00
     Exponent=  3.0078484637D+05 Coefficients=  2.2806273096D-04
     Exponent=  4.5088970557D+04 Coefficients=  1.7681788761D-03
     Exponent=  1.0262516317D+04 Coefficients=  9.1927083490D-03
     Exponent=  2.9052897293D+03 Coefficients=  3.7355495807D-02
     Exponent=  9.4611487137D+02 Coefficients=  1.2151108426D-01
     Exponent=  3.3987832894D+02 Coefficients=  2.8818881468D-01
     Exponent=  1.3194425588D+02 Coefficients=  4.1126612677D-01
     Exponent=  5.2111494077D+01 Coefficients=  2.1518583573D-01
 S 4 1.00
     Exponent=  3.2948839267D+02 Coefficients= -2.4745216477D-02
     Exponent=  1.0192332739D+02 Coefficients= -1.1683089050D-01
     Exponent=  1.6240462745D+01 Coefficients=  5.5293621136D-01
     Exponent=  6.8840675801D+00 Coefficients=  5.3601640182D-01
 S 2 1.00
     Exponent=  1.0470693782D+01 Coefficients= -2.2912708577D-01
     Exponent=  1.7360039648D+00 Coefficients=  7.1159319984D-01
 S 1 1.00
     Exponent=  7.2577288979D-01 Coefficients=  1.0000000000D+00
 S 1 1.00
     Exponent=  1.1595528203D-01 Coefficients=  1.0000000000D+00
 S 1 1.00
     Exponent=  4.1968227746D-02 Coefficients=  1.0000000000D+00
 P 6 1.00
     Exponent=  1.5853959970D+03 Coefficients=  2.3793960179D-03
     Exponent=  3.7538006499D+02 Coefficients=  1.9253154755D-02
     Exponent=  1.2031816501D+02 Coefficients=  9.0021836536D-02
     Exponent=  4.4788749031D+01 Coefficients=  2.5798172356D-01
     Exponent=  1.7829278584D+01 Coefficients=  4.1492649744D-01
     Exponent=  7.2247153786D+00 Coefficients=  2.4207474784D-01
 P 3 1.00
     Exponent=  2.8143219756D+01 Coefficients= -2.9041755152D-02
     Exponent=  3.8743241412D+00 Coefficients=  5.5312260343D-01
     Exponent=  1.5410752281D+00 Coefficients=  9.6771136842D-01
 P 1 1.00
     Exponent=  5.8285615250D-01 Coefficients=  1.0000000000D+00
 P 1 1.00
     Exponent=  1.3491500000D-01 Coefficients=  1.0000000000D+00
 D 4 1.00
     Exponent=  6.1996675034D+01 Coefficients=  1.1971972255D-02
     Exponent=  1.7873732552D+01 Coefficients=  7.3210135410D-02
     Exponent=  6.2744782934D+00 Coefficients=  2.3103094314D-01
     Exponent=  2.3552337175D+00 Coefficients=  3.9910706494D-01
 D 1 1.00
     Exponent=  8.5432239901D-01 Coefficients=  4.1391589765D-01
 D 1 1.00
     Exponent=  2.7869254413D-01 Coefficients=  2.1909269782D-01
 D 1 1.00
     Exponent=  9.1000000000D-02 Coefficients=  1.0000000000D+00
 F 1 1.00
     Exponent=  1.5980000000D+00 Coefficients=  1.0000000000D+00
 ****
 Centers:      29     30
 S 6 1.00
     Exponent=  1.9730800647D+04 Coefficients=  2.1887984991D-04
     Exponent=  2.9578958745D+03 Coefficients=  1.6960708803D-03
     Exponent=  6.7322133595D+02 Coefficients=  8.7954603538D-03
     Exponent=  1.9068249494D+02 Coefficients=  3.5359382605D-02
     Exponent=  6.2295441898D+01 Coefficients=  1.1095789217D-01
     Exponent=  2.2654161182D+01 Coefficients=  2.4982972552D-01
 S 2 1.00
     Exponent=  8.9791477428D+00 Coefficients=  4.0623896148D-01
     Exponent=  3.6863002370D+00 Coefficients=  2.4338217176D-01
 S 1 1.00
     Exponent=  8.4660076805D-01 Coefficients=  1.0000000000D+00
 S 1 1.00
     Exponent=  3.3647133771D-01 Coefficients=  1.0000000000D+00
 S 1 1.00
     Exponent=  1.3647653675D-01 Coefficients=  1.0000000000D+00
 P 4 1.00
     Exponent=  4.9200380510D+01 Coefficients=  5.5552416751D-03
     Exponent=  1.1346790537D+01 Coefficients=  3.8052379723D-02
     Exponent=  3.4273972411D+00 Coefficients=  1.4953671029D-01
     Exponent=  1.1785525134D+00 Coefficients=  3.4949305230D-01
 P 1 1.00
     Exponent=  4.1642204972D-01 Coefficients=  4.5843153697D-01
 P 1 1.00
     Exponent=  1.4260826011D-01 Coefficients=  2.4428771672D-01
 D 1 1.00
     Exponent=  1.6540000000D+00 Coefficients=  1.0000000000D+00
 D 1 1.00
     Exponent=  4.6900000000D-01 Coefficients=  1.0000000000D+00
 F 1 1.00
     Exponent=  1.0930000000D+00 Coefficients=  1.0000000000D+00
 ****
 Ernie: Thresh=  0.10000D-02 Tol=  0.10000D-05 Strict=F.
   853 basis functions,  1476 primitive gaussians,   984 cartesian basis functions
   130 alpha electrons      116 beta electrons
       nuclear repulsion energy      4436.7022598059 Hartrees.
 IExCor= 4134 DFT=T Ex+Corr=M06L ExCW=0 ScaHFX=  0.000000
 ScaDFX=  1.000000  1.000000  1.000000  1.000000 ScalE2=  1.000000  1.000000
 IRadAn=      5 IRanWt=     -1 IRanGd=            0 ICorTp=0 IEmpDi=  4
 NAtoms=   31 NActive=   31 NUniq=   31 SFac= 1.00D+00 NAtFMM=   60 NAOKFM=F Big=F
 Integral buffers will be    131072 words long.
 Raffenetti 2 integral format.
 Two-electron integral symmetry is turned off.
 Leave Link  301 at Mon Jan 23 18:10:44 2023, MaxMem= 14763950080 cpu:               0.1 elap:               0.1
 (Enter /software/commercial/gaussian/g16/AVX2/g16/l302.exe)
 NPDir=0 NMtPBC=     1 NCelOv=     1 NCel=       1 NClECP=     1 NCelD=      1
         NCelK=      1 NCelE2=     1 NClLst=     1 CellRange=     0.0.
 One-electron integrals computed using PRISM.
 NBasis=   853 RedAO= T EigKep=  2.15D-04  NBF=   853
 NBsUse=   853 1.00D-06 EigRej= -1.00D+00 NBFU=   853
 Precomputing XC quadrature grid using
 IXCGrd= 4 IRadAn=           5 IRanWt=          -1 IRanGd=           0 AccXCQ= 0.00D+00.
 Generated NRdTot=       0 NPtTot=           0 NUsed=           0 NTot=          32
 NSgBfM=   962   962   962   962   962 MxSgAt=    31 MxSgA2=    31.
 Leave Link  302 at Mon Jan 23 18:10:45 2023, MaxMem= 14763950080 cpu:               2.3 elap:               1.5
 (Enter /software/commercial/gaussian/g16/AVX2/g16/l303.exe)
 DipDrv:  MaxL=1.
 Leave Link  303 at Mon Jan 23 18:10:46 2023, MaxMem= 14763950080 cpu:               0.2 elap:               0.2
 (Enter /software/commercial/gaussian/g16/AVX2/g16/l401.exe)
 ExpMin= 4.20D-02 ExpMax= 3.01D+05 ExpMxC= 2.91D+03 IAcc=3 IRadAn=         5 AccDes= 0.00D+00
 Harris functional with IExCor= 1009 and IRadAn=       5 diagonalized for initial guess.
 HarFok:  IExCor= 1009 AccDes= 0.00D+00 IRadAn=         5 IDoV= 1 UseB2=F ITyADJ=14
 ICtDFT=  3500011 ScaDFX=  1.000000  1.000000  1.000000  1.000000
 FoFCou: FMM=F IPFlag=           0 FMFlag=      100000 FMFlg1=           0
         NFxFlg=           0 DoJE=T BraDBF=F KetDBF=T FulRan=T
         wScrn=  0.000000 ICntrl=       500 IOpCl=  0 I1Cent=   200000004 NGrid=           0
         NMat0=    1 NMatS0=      1 NMatT0=    0 NMatD0=    1 NMtDS0=    0 NMtDT0=    0
 Symmetry not used in FoFCou.
 Harris En= -5184.49349925668    
 JPrj=0 DoOrth=F DoCkMO=F.
 Initial guess <Sx>= 0.0000 <Sy>= 0.0000 <Sz>= 7.0000 <S**2>=56.0000 S= 7.0000
 Leave Link  401 at Mon Jan 23 18:11:00 2023, MaxMem= 14763950080 cpu:              26.7 elap:              13.7
 (Enter /software/commercial/gaussian/g16/AVX2/g16/l502.exe)
 Two-electron integral symmetry not used.
 UHF open shell SCF:
 Using DIIS extrapolation, IDIIS=  1040.
 NGot= 14763950080 LenX= 14762000842 LenY= 14761031602
 Requested convergence on RMS density matrix=1.00D-08 within 150 cycles.
 Requested convergence on MAX density matrix=1.00D-06.
 Requested convergence on             energy=1.00D-06.
 No special actions if energy rises.
 Fock matrices will be formed incrementally for  20 cycles.

 Cycle   1  Pass 1  IDiag  1:
 FoFJK:  IHMeth= 1 ICntrl=     500 DoSepK=F KAlg= 0 I1Cent=           0 FoldK=F
 IRaf= 770000000 NMat=       1 IRICut=       1 DoRegI=T DoRafI=F ISym2E= 0 IDoP0=0 IntGTp=1.
 FoFCou: FMM=F IPFlag=           0 FMFlag=      100000 FMFlg1=           0
         NFxFlg=           0 DoJE=T BraDBF=F KetDBF=F FulRan=T
         wScrn=  0.000000 ICntrl=       500 IOpCl=  0 I1Cent=           0 NGrid=           0
         NMat0=    1 NMatS0=      1 NMatT0=    0 NMatD0=    1 NMtDS0=    0 NMtDT0=    0
 Symmetry not used in FoFCou.
 E= -5185.40771570962    
 DIIS: error= 6.20D-02 at cycle   1 NSaved=   1.
 NSaved= 1 IEnMin= 1 EnMin= -5185.40771570962     IErMin= 1 ErrMin= 6.20D-02
 ErrMax= 6.20D-02  0.00D+00 EMaxC= 1.00D-01 BMatC= 1.05D+01 BMatP= 1.05D+01
 IDIUse=3 WtCom= 3.80D-01 WtEn= 6.20D-01
 Coeff-Com:  0.100D+01
 Coeff-En:   0.100D+01
 Coeff:      0.100D+01
 Gap=     0.005 Goal=   None    Shift=    0.000
 Gap=    -0.001 Goal=   None    Shift=    0.000
 GapD=   -0.001 DampG=0.250 DampE=0.250 DampFc=0.1250 IDamp=-1.
 Damping current iteration by 1.25D-01
 RMSDP=3.72D-03 MaxDP=7.60D-01              OVMax= 9.28D-01

 Cycle   2  Pass 1  IDiag  1:
 RMSU=  4.64D-04    CP:  9.98D-01
 E= -5185.85058633383     Delta-E=       -0.442870624207 Rises=F Damp=T
 DIIS: error= 1.95D-02 at cycle   2 NSaved=   2.
 NSaved= 2 IEnMin= 2 EnMin= -5185.85058633383     IErMin= 2 ErrMin= 1.95D-02
 ErrMax= 1.95D-02  0.00D+00 EMaxC= 1.00D-01 BMatC= 2.34D+00 BMatP= 1.05D+01
 IDIUse=3 WtCom= 8.05D-01 WtEn= 1.95D-01
 Coeff-Com: -0.393D+00 0.139D+01
 Coeff-En:   0.134D+00 0.866D+00
 Coeff:     -0.290D+00 0.129D+01
 Gap=     0.104 Goal=   None    Shift=    0.000
 Gap=    -0.031 Goal=   None    Shift=    0.000
 RMSDP=1.84D-03 MaxDP=1.66D-01 DE=-4.43D-01 OVMax= 9.64D-01

 Cycle   3  Pass 1  IDiag  1:
 RMSU=  1.83D-03    CP:  9.88D-01  9.42D-01
 E= -5182.91329769733     Delta-E=        2.937288636502 Rises=F Damp=F
 DIIS: error= 5.59D-02 at cycle   3 NSaved=   3.
 NSaved= 3 IEnMin= 2 EnMin= -5185.85058633383     IErMin= 2 ErrMin= 1.95D-02
 ErrMax= 5.59D-02  0.00D+00 EMaxC= 1.00D-01 BMatC= 1.40D+01 BMatP= 2.34D+00
 IDIUse=2 WtCom= 0.00D+00 WtEn= 1.00D+00
 EnCoef did     2 forward-backward iterations
 Coeff-En:   0.122D-01 0.869D+00 0.119D+00
 Coeff:      0.122D-01 0.869D+00 0.119D+00
 Gap=     0.055 Goal=   None    Shift=    0.000
 Gap=     0.060 Goal=   None    Shift=    0.000
 RMSDP=2.39D-03 MaxDP=3.28D-01 DE= 2.94D+00 OVMax= 8.04D-01

 Cycle   4  Pass 1  IDiag  1:
 RMSU=  1.44D-03    CP:  9.85D-01  3.00D+00  1.74D-01
 E= -5180.23411176088     Delta-E=        2.679185936449 Rises=F Damp=F
 DIIS: error= 1.75D-01 at cycle   4 NSaved=   4.
 NSaved= 4 IEnMin= 2 EnMin= -5185.85058633383     IErMin= 2 ErrMin= 1.95D-02
 ErrMax= 1.75D-01  0.00D+00 EMaxC= 1.00D-01 BMatC= 4.02D+01 BMatP= 2.34D+00
 IDIUse=2 WtCom= 0.00D+00 WtEn= 1.00D+00
 EnCoef did   100 forward-backward iterations
 Coeff-En:   0.530D+00 0.146D-01 0.189D+00 0.267D+00
 Coeff:      0.530D+00 0.146D-01 0.189D+00 0.267D+00
 Gap=     0.120 Goal=   None    Shift=    0.000
 Gap=     0.034 Goal=   None    Shift=    0.000
 RMSDP=1.62D-03 MaxDP=3.23D-01 DE= 2.68D+00 OVMax= 7.52D-01

 Cycle   5  Pass 1  IDiag  1:
 RMSU=  1.20D-03    CP:  9.91D-01  2.15D+00  2.46D-01  3.70D-01
 E= -5184.20846068155     Delta-E=       -3.974348920674 Rises=F Damp=F
 DIIS: error= 1.59D-01 at cycle   5 NSaved=   5.
 NSaved= 5 IEnMin= 2 EnMin= -5185.85058633383     IErMin= 2 ErrMin= 1.95D-02
 ErrMax= 1.59D-01  0.00D+00 EMaxC= 1.00D-01 BMatC= 1.50D+01 BMatP= 2.34D+00
 IDIUse=2 WtCom= 0.00D+00 WtEn= 1.00D+00
 EnCoef did   100 forward-backward iterations
 Coeff-En:   0.509D+00 0.806D-02 0.128D+00 0.207D+00 0.147D+00
 Coeff:      0.509D+00 0.806D-02 0.128D+00 0.207D+00 0.147D+00
 Gap=     0.048 Goal=   None    Shift=    0.000
 Gap=     0.024 Goal=   None    Shift=    0.000
 RMSDP=1.58D-03 MaxDP=3.25D-01 DE=-3.97D+00 OVMax= 9.84D-01

 Cycle   6  Pass 1  IDiag  1:
 RMSU=  1.00D-03    CP:  9.96D-01  1.38D+00  2.42D-01  3.31D-01  3.65D-02
 E= -5185.39411513592     Delta-E=       -1.185654454363 Rises=F Damp=F
 DIIS: error= 5.29D-02 at cycle   6 NSaved=   6.
 NSaved= 6 IEnMin= 2 EnMin= -5185.85058633383     IErMin= 2 ErrMin= 1.95D-02
 ErrMax= 5.29D-02  0.00D+00 EMaxC= 1.00D-01 BMatC= 7.18D+00 BMatP= 2.34D+00
 IDIUse=2 WtCom= 0.00D+00 WtEn= 1.00D+00
 EnCoef did     4 forward-backward iterations
 Coeff-En:   0.147D+00 0.000D+00 0.273D-03 0.000D+00 0.361D+00 0.492D+00
 Coeff:      0.147D+00 0.000D+00 0.273D-03 0.000D+00 0.361D+00 0.492D+00
 Gap=     0.038 Goal=   None    Shift=    0.000
 Gap=    -0.049 Goal=   None    Shift=    0.000
 RMSDP=1.36D-03 MaxDP=3.01D-01 DE=-1.19D+00 OVMax= 9.89D-01

 Cycle   7  Pass 1  IDiag  1:
 RMSU=  1.16D-03    CP:  9.91D-01  1.29D+00  2.80D-01  3.08D-01  1.89D-01
                    CP:  3.32D-01
 E= -5184.81589815811     Delta-E=        0.578216977809 Rises=F Damp=F
 DIIS: error= 5.18D-02 at cycle   7 NSaved=   7.
 NSaved= 7 IEnMin= 2 EnMin= -5185.85058633383     IErMin= 2 ErrMin= 1.95D-02
 ErrMax= 5.18D-02  0.00D+00 EMaxC= 1.00D-01 BMatC= 1.00D+01 BMatP= 2.34D+00
 IDIUse=2 WtCom= 0.00D+00 WtEn= 1.00D+00
 EnCoef did     5 forward-backward iterations
 Coeff-En:   0.533D-01 0.000D+00 0.254D-03 0.000D+00 0.328D+00 0.478D+00
 Coeff-En:   0.141D+00
 Coeff:      0.533D-01 0.000D+00 0.254D-03 0.000D+00 0.328D+00 0.478D+00
 Coeff:      0.141D+00
 Gap=    -0.005 Goal=   None    Shift=    0.000
 Gap=    -0.067 Goal=   None    Shift=    0.000
 RMSDP=1.31D-03 MaxDP=2.41D-01 DE= 5.78D-01 OVMax= 9.87D-01

 Cycle   8  Pass 1  IDiag  1:
 RMSU=  7.33D-04    CP:  9.93D-01  1.30D+00  2.78D-01  3.60D-01  5.66D-01
                    CP:  6.09D-02  1.82D-01
 E= -5186.29249836813     Delta-E=       -1.476600210019 Rises=F Damp=F
 DIIS: error= 3.22D-02 at cycle   8 NSaved=   8.
 NSaved= 8 IEnMin= 8 EnMin= -5186.29249836813     IErMin= 2 ErrMin= 1.95D-02
 ErrMax= 3.22D-02  0.00D+00 EMaxC= 1.00D-01 BMatC= 2.67D+00 BMatP= 2.34D+00
 IDIUse=2 WtCom= 0.00D+00 WtEn= 1.00D+00
 EnCoef did    14 forward-backward iterations
 Coeff-En:   0.000D+00 0.000D+00 0.000D+00 0.000D+00 0.129D+00 0.364D+00
 Coeff-En:   0.716D-01 0.435D+00
 Coeff:      0.000D+00 0.000D+00 0.000D+00 0.000D+00 0.129D+00 0.364D+00
 Coeff:      0.716D-01 0.435D+00
 Gap=     0.095 Goal=   None    Shift=    0.000
 Gap=     0.025 Goal=   None    Shift=    0.000
 RMSDP=1.39D-03 MaxDP=2.81D-01 DE=-1.48D+00 OVMax= 9.54D-01

 Cycle   9  Pass 1  IDiag  1:
 RMSU=  6.95D-04    CP:  9.94D-01  1.78D+00  2.61D-01  3.52D-01  2.39D-01
                    CP:  4.41D-01  6.88D-01 -1.83D-01
 E= -5185.39493055207     Delta-E=        0.897567816059 Rises=F Damp=F
 DIIS: error= 8.54D-02 at cycle   9 NSaved=   9.
 NSaved= 9 IEnMin= 8 EnMin= -5186.29249836813     IErMin= 2 ErrMin= 1.95D-02
 ErrMax= 8.54D-02  0.00D+00 EMaxC= 1.00D-01 BMatC= 7.73D+00 BMatP= 2.34D+00
 IDIUse=2 WtCom= 0.00D+00 WtEn= 1.00D+00
 EnCoef did    11 forward-backward iterations
 Coeff-En:   0.000D+00 0.000D+00 0.000D+00 0.000D+00 0.258D-01 0.254D+00
 Coeff-En:   0.000D+00 0.548D+00 0.172D+00
 Coeff:      0.000D+00 0.000D+00 0.000D+00 0.000D+00 0.258D-01 0.254D+00
 Coeff:      0.000D+00 0.548D+00 0.172D+00
 Gap=    -0.028 Goal=   None    Shift=    0.000
 Gap=     0.001 Goal=   None    Shift=    0.000
 RMSDP=1.26D-03 MaxDP=2.64D-01 DE= 8.98D-01 OVMax= 9.88D-01

 Cycle  10  Pass 1  IDiag  1:
 RMSU=  4.71D-04    CP:  9.95D-01  1.91D+00  2.59D-01  4.55D-01  4.88D-01
                    CP:  2.40D-01  3.36D-02  6.50D-01  2.75D-01
 E= -5186.47169756358     Delta-E=       -1.076767011513 Rises=F Damp=F
 DIIS: error= 3.07D-02 at cycle  10 NSaved=  10.
 NSaved=10 IEnMin=10 EnMin= -5186.47169756358     IErMin= 2 ErrMin= 1.95D-02
 ErrMax= 3.07D-02  0.00D+00 EMaxC= 1.00D-01 BMatC= 1.73D+00 BMatP= 2.34D+00
 IDIUse=3 WtCom= 6.93D-01 WtEn= 3.07D-01
 EnCoef did   100 forward-backward iterations
 Coeff-Com: -0.996D-01 0.176D+00 0.237D-01-0.434D-01-0.380D-01 0.139D+00
 Coeff-Com:  0.220D-01 0.346D+00 0.144D+00 0.331D+00
 Coeff-En:   0.000D+00 0.000D+00 0.000D+00 0.000D+00 0.000D+00 0.161D+00
 Coeff-En:   0.734D-02 0.399D+00 0.149D+00 0.284D+00
 Coeff:     -0.690D-01 0.122D+00 0.164D-01-0.301D-01-0.263D-01 0.146D+00
 Coeff:      0.175D-01 0.362D+00 0.145D+00 0.316D+00
 Gap=     0.045 Goal=   None    Shift=    0.000
 Gap=     0.011 Goal=   None    Shift=    0.000
 RMSDP=5.35D-04 MaxDP=7.60D-02 DE=-1.08D+00 OVMax= 4.48D-01

 Cycle  11  Pass 1  IDiag  1:
 RMSU=  4.16D-04    CP:  9.94D-01  1.54D+00  3.23D-01  3.89D-01  4.56D-01
                    CP:  1.94D-01  1.51D-01  7.51D-01  1.90D-01  6.34D-01
 E= -5186.72804948348     Delta-E=       -0.256351919899 Rises=F Damp=F
 DIIS: error= 7.39D-03 at cycle  11 NSaved=  11.
 NSaved=11 IEnMin=11 EnMin= -5186.72804948348     IErMin=11 ErrMin= 7.39D-03
 ErrMax= 7.39D-03  0.00D+00 EMaxC= 1.00D-01 BMatC= 1.61D-01 BMatP= 1.73D+00
 IDIUse=3 WtCom= 9.26D-01 WtEn= 7.39D-02
 Coeff-Com: -0.689D-01 0.112D+00 0.123D-01-0.185D-01-0.268D-01 0.355D-01
 Coeff-Com:  0.353D-02 0.983D-01 0.546D-01 0.227D+00 0.571D+00
 Coeff-En:   0.000D+00 0.000D+00 0.000D+00 0.000D+00 0.000D+00 0.000D+00
 Coeff-En:   0.000D+00 0.000D+00 0.000D+00 0.143D+00 0.857D+00
 Coeff:     -0.638D-01 0.103D+00 0.114D-01-0.172D-01-0.248D-01 0.329D-01
 Coeff:      0.327D-02 0.910D-01 0.506D-01 0.221D+00 0.592D+00
 Gap=     0.052 Goal=   None    Shift=    0.000
 Gap=     0.016 Goal=   None    Shift=    0.000
 RMSDP=2.47D-04 MaxDP=3.28D-02 DE=-2.56D-01 OVMax= 1.54D-01

 Cycle  12  Pass 1  IDiag  1:
 RMSU=  2.23D-04    CP:  9.94D-01  1.63D+00  3.34D-01  3.93D-01  4.55D-01
                    CP:  2.00D-01  1.46D-01  7.85D-01  2.37D-01  6.95D-01
                    CP:  8.09D-01
 E= -5186.73786292315     Delta-E=       -0.009813439669 Rises=F Damp=F
 DIIS: error= 5.98D-03 at cycle  12 NSaved=  12.
 NSaved=12 IEnMin=12 EnMin= -5186.73786292315     IErMin=12 ErrMin= 5.98D-03
 ErrMax= 5.98D-03  0.00D+00 EMaxC= 1.00D-01 BMatC= 9.47D-02 BMatP= 1.61D-01
 IDIUse=3 WtCom= 9.40D-01 WtEn= 5.98D-02
 EnCoef did     4 forward-backward iterations
 Coeff-Com: -0.286D-01 0.406D-01-0.323D-02-0.255D-02-0.176D-02 0.445D-02
 Coeff-Com: -0.581D-02-0.398D-02 0.500D-02 0.784D-01 0.498D+00 0.420D+00
 Coeff-En:   0.000D+00 0.000D+00 0.000D+00 0.000D+00 0.000D+00 0.000D+00
 Coeff-En:   0.000D+00 0.000D+00 0.000D+00 0.127D-01 0.416D+00 0.571D+00
 Coeff:     -0.269D-01 0.382D-01-0.304D-02-0.240D-02-0.165D-02 0.418D-02
 Coeff:     -0.546D-02-0.374D-02 0.470D-02 0.744D-01 0.493D+00 0.429D+00
 Gap=     0.063 Goal=   None    Shift=    0.000
 Gap=     0.020 Goal=   None    Shift=    0.000
 RMSDP=2.00D-04 MaxDP=2.97D-02 DE=-9.81D-03 OVMax= 1.90D-01

 Cycle  13  Pass 1  IDiag  1:
 RMSU=  1.66D-04    CP:  9.93D-01  1.64D+00  3.58D-01  3.90D-01  4.58D-01
                    CP:  2.09D-01  1.47D-01  7.59D-01  2.50D-01  6.31D-01
                    CP:  1.03D+00  9.34D-01
 E= -5186.74666961950     Delta-E=       -0.008806696354 Rises=F Damp=F
 DIIS: error= 3.77D-03 at cycle  13 NSaved=  13.
 NSaved=13 IEnMin=13 EnMin= -5186.74666961950     IErMin=13 ErrMin= 3.77D-03
 ErrMax= 3.77D-03  0.00D+00 EMaxC= 1.00D-01 BMatC= 4.27D-02 BMatP= 9.47D-02
 IDIUse=3 WtCom= 9.62D-01 WtEn= 3.77D-02
 EnCoef did    12 forward-backward iterations
 Coeff-Com: -0.267D-01 0.329D-01-0.821D-02-0.472D-04-0.107D-02 0.302D-02
 Coeff-Com: -0.207D-02 0.137D-01 0.529D-02 0.644D-01 0.306D+00 0.306D+00
 Coeff-Com:  0.307D+00
 Coeff-En:   0.000D+00 0.000D+00 0.000D+00 0.000D+00 0.000D+00 0.000D+00
 Coeff-En:   0.000D+00 0.000D+00 0.000D+00 0.239D-01 0.364D-01 0.296D+00
 Coeff-En:   0.643D+00
 Coeff:     -0.257D-01 0.317D-01-0.790D-02-0.454D-04-0.103D-02 0.291D-02
 Coeff:     -0.199D-02 0.132D-01 0.509D-02 0.629D-01 0.296D+00 0.305D+00
 Coeff:      0.319D+00
 Gap=     0.077 Goal=   None    Shift=    0.000
 Gap=     0.013 Goal=   None    Shift=    0.000
 RMSDP=1.32D-04 MaxDP=1.82D-02 DE=-8.81D-03 OVMax= 1.48D-01

 Cycle  14  Pass 1  IDiag  1:
 RMSU=  6.74D-05    CP:  9.94D-01  1.65D+00  3.34D-01  3.96D-01  4.61D-01
                    CP:  2.00D-01  1.42D-01  7.69D-01  2.38D-01  6.75D-01
                    CP:  9.29D-01  7.87D-01  4.90D-01
 E= -5186.75681720640     Delta-E=       -0.010147586898 Rises=F Damp=F
 DIIS: error= 1.04D-03 at cycle  14 NSaved=  14.
 NSaved=14 IEnMin=14 EnMin= -5186.75681720640     IErMin=14 ErrMin= 1.04D-03
 ErrMax= 1.04D-03  0.00D+00 EMaxC= 1.00D-01 BMatC= 3.22D-03 BMatP= 4.27D-02
 IDIUse=3 WtCom= 9.90D-01 WtEn= 1.04D-02
 Coeff-Com: -0.100D-01 0.146D-01-0.587D-02 0.142D-02-0.257D-02 0.228D-02
 Coeff-Com:  0.343D-02 0.799D-02-0.100D-02 0.196D-02-0.124D+00-0.579D-01
 Coeff-Com:  0.107D+00 0.106D+01
 Coeff-En:   0.000D+00 0.000D+00 0.000D+00 0.000D+00 0.000D+00 0.000D+00
 Coeff-En:   0.000D+00 0.000D+00 0.000D+00 0.000D+00 0.000D+00 0.000D+00
 Coeff-En:   0.000D+00 0.100D+01
 Coeff:     -0.992D-02 0.145D-01-0.581D-02 0.140D-02-0.254D-02 0.225D-02
 Coeff:      0.339D-02 0.790D-02-0.990D-03 0.194D-02-0.122D+00-0.573D-01
 Coeff:      0.105D+00 0.106D+01
 Gap=     0.088 Goal=   None    Shift=    0.000
 Gap=     0.011 Goal=   None    Shift=    0.000
 RMSDP=5.59D-05 MaxDP=6.27D-03 DE=-1.01D-02 OVMax= 5.05D-02

 Cycle  15  Pass 1  IDiag  1:
 RMSU=  3.98D-05    CP:  9.94D-01  1.68D+00  3.26D-01  4.01D-01  4.56D-01
                    CP:  2.06D-01  1.43D-01  7.66D-01  2.34D-01  7.08D-01
                    CP:  9.13D-01  7.66D-01  4.50D-01  1.40D+00
 E= -5186.75681934198     Delta-E=       -0.000002135585 Rises=F Damp=F
 DIIS: error= 7.50D-04 at cycle  15 NSaved=  15.
 NSaved=15 IEnMin=15 EnMin= -5186.75681934198     IErMin=15 ErrMin= 7.50D-04
 ErrMax= 7.50D-04  0.00D+00 EMaxC= 1.00D-01 BMatC= 3.03D-03 BMatP= 3.22D-03
 IDIUse=3 WtCom= 9.92D-01 WtEn= 7.50D-03
 Coeff-Com: -0.292D-02 0.555D-02-0.161D-02 0.539D-03 0.107D-03 0.179D-03
 Coeff-Com:  0.691D-03-0.134D-02 0.753D-03-0.633D-02-0.835D-01-0.533D-01
 Coeff-Com:  0.268D-01 0.740D+00 0.375D+00
 Coeff-En:   0.000D+00 0.000D+00 0.000D+00 0.000D+00 0.000D+00 0.000D+00
 Coeff-En:   0.000D+00 0.000D+00 0.000D+00 0.000D+00 0.000D+00 0.000D+00
 Coeff-En:   0.000D+00 0.499D+00 0.501D+00
 Coeff:     -0.290D-02 0.550D-02-0.160D-02 0.535D-03 0.106D-03 0.177D-03
 Coeff:      0.686D-03-0.133D-02 0.748D-03-0.629D-02-0.828D-01-0.529D-01
 Coeff:      0.266D-01 0.738D+00 0.376D+00
 Gap=     0.086 Goal=   None    Shift=    0.000
 Gap=     0.013 Goal=   None    Shift=    0.000
 RMSDP=4.57D-05 MaxDP=5.18D-03 DE=-2.14D-06 OVMax= 4.94D-02

 Cycle  16  Pass 1  IDiag  1:
 RMSU=  1.77D-05    CP:  9.94D-01  1.67D+00  3.34D-01  3.99D-01  4.57D-01
                    CP:  2.05D-01  1.43D-01  7.65D-01  2.40D-01  6.89D-01
                    CP:  9.47D-01  8.45D-01  5.85D-01  1.24D+00  5.50D-01
 E= -5186.75734044212     Delta-E=       -0.000521100137 Rises=F Damp=F
 DIIS: error= 5.05D-04 at cycle  16 NSaved=  16.
 NSaved=16 IEnMin=16 EnMin= -5186.75734044212     IErMin=16 ErrMin= 5.05D-04
 ErrMax= 5.05D-04  0.00D+00 EMaxC= 1.00D-01 BMatC= 7.75D-04 BMatP= 3.03D-03
 IDIUse=3 WtCom= 9.95D-01 WtEn= 5.05D-03
 Coeff-Com: -0.563D-03 0.103D-02 0.224D-03 0.495D-04 0.857D-03-0.922D-03
 Coeff-Com:  0.561D-03-0.107D-02 0.142D-02-0.264D-02-0.405D-01-0.385D-01
 Coeff-Com: -0.180D-01 0.322D+00 0.308D+00 0.468D+00
 Coeff-En:   0.000D+00 0.000D+00 0.000D+00 0.000D+00 0.000D+00 0.000D+00
 Coeff-En:   0.000D+00 0.000D+00 0.000D+00 0.000D+00 0.000D+00 0.000D+00
 Coeff-En:   0.000D+00 0.000D+00 0.244D+00 0.756D+00
 Coeff:     -0.560D-03 0.103D-02 0.223D-03 0.492D-04 0.853D-03-0.918D-03
 Coeff:      0.558D-03-0.106D-02 0.141D-02-0.262D-02-0.403D-01-0.383D-01
 Coeff:     -0.179D-01 0.320D+00 0.307D+00 0.470D+00
 Gap=     0.087 Goal=   None    Shift=    0.000
 Gap=     0.013 Goal=   None    Shift=    0.000
 RMSDP=1.45D-05 MaxDP=1.48D-03 DE=-5.21D-04 OVMax= 1.37D-02

 Cycle  17  Pass 1  IDiag  1:
 RMSU=  6.24D-06    CP:  9.94D-01  1.68D+00  3.32D-01  3.99D-01  4.58D-01
                    CP:  2.04D-01  1.43D-01  7.64D-01  2.39D-01  6.93D-01
                    CP:  9.39D-01  8.25D-01  5.47D-01  1.32D+00  6.45D-01
                    CP:  6.89D-01
 E= -5186.75748536121     Delta-E=       -0.000144919090 Rises=F Damp=F
 DIIS: error= 2.29D-04 at cycle  17 NSaved=  17.
 NSaved=17 IEnMin=17 EnMin= -5186.75748536121     IErMin=17 ErrMin= 2.29D-04
 ErrMax= 2.29D-04  0.00D+00 EMaxC= 1.00D-01 BMatC= 8.20D-05 BMatP= 7.75D-04
 IDIUse=3 WtCom= 9.98D-01 WtEn= 2.29D-03
 Coeff-Com: -0.776D-04-0.771D-04 0.383D-03-0.685D-04 0.684D-03-0.892D-03
 Coeff-Com:  0.265D-03 0.356D-03 0.888D-03-0.524D-03-0.172D-01-0.188D-01
 Coeff-Com: -0.178D-01 0.115D+00 0.135D+00 0.295D+00 0.507D+00
 Coeff-En:   0.000D+00 0.000D+00 0.000D+00 0.000D+00 0.000D+00 0.000D+00
 Coeff-En:   0.000D+00 0.000D+00 0.000D+00 0.000D+00 0.000D+00 0.000D+00
 Coeff-En:   0.000D+00 0.000D+00 0.000D+00 0.000D+00 0.100D+01
 Coeff:     -0.774D-04-0.769D-04 0.382D-03-0.684D-04 0.683D-03-0.890D-03
 Coeff:      0.265D-03 0.355D-03 0.886D-03-0.523D-03-0.171D-01-0.188D-01
 Coeff:     -0.178D-01 0.115D+00 0.135D+00 0.294D+00 0.509D+00
 Gap=     0.087 Goal=   None    Shift=    0.000
 Gap=     0.013 Goal=   None    Shift=    0.000
 RMSDP=4.69D-06 MaxDP=4.89D-04 DE=-1.45D-04 OVMax= 3.71D-03

 Cycle  18  Pass 1  IDiag  1:
 RMSU=  3.58D-06    CP:  9.94D-01  1.68D+00  3.32D-01  3.99D-01  4.58D-01
                    CP:  2.04D-01  1.43D-01  7.63D-01  2.39D-01  6.92D-01
                    CP:  9.39D-01  8.30D-01  5.58D-01  1.32D+00  6.30D-01
                    CP:  7.46D-01  8.89D-01
 E= -5186.75749505034     Delta-E=       -0.000009689129 Rises=F Damp=F
 DIIS: error= 1.72D-04 at cycle  18 NSaved=  18.
 NSaved=18 IEnMin=18 EnMin= -5186.75749505034     IErMin=18 ErrMin= 1.72D-04
 ErrMax= 1.72D-04  0.00D+00 EMaxC= 1.00D-01 BMatC= 3.56D-05 BMatP= 8.20D-05
 IDIUse=3 WtCom= 9.98D-01 WtEn= 1.72D-03
 Coeff-Com: -0.205D-03 0.803D-04 0.971D-04-0.541D-04 0.222D-03-0.283D-03
 Coeff-Com:  0.810D-04 0.145D-02-0.152D-04 0.351D-03-0.217D-02-0.247D-02
 Coeff-Com: -0.115D-01-0.372D-02-0.883D-02 0.453D-01 0.418D+00 0.563D+00
 Coeff-En:   0.000D+00 0.000D+00 0.000D+00 0.000D+00 0.000D+00 0.000D+00
 Coeff-En:   0.000D+00 0.000D+00 0.000D+00 0.000D+00 0.000D+00 0.000D+00
 Coeff-En:   0.000D+00 0.000D+00 0.000D+00 0.000D+00 0.257D+00 0.743D+00
 Coeff:     -0.204D-03 0.802D-04 0.969D-04-0.540D-04 0.222D-03-0.283D-03
 Coeff:      0.808D-04 0.145D-02-0.152D-04 0.351D-03-0.217D-02-0.246D-02
 Coeff:     -0.115D-01-0.372D-02-0.882D-02 0.452D-01 0.418D+00 0.564D+00
 Gap=     0.087 Goal=   None    Shift=    0.000
 Gap=     0.013 Goal=   None    Shift=    0.000
 RMSDP=3.68D-06 MaxDP=4.14D-04 DE=-9.69D-06 OVMax= 3.72D-03

 Cycle  19  Pass 1  IDiag  1:
 RMSU=  2.11D-06    CP:  9.94D-01  1.68D+00  3.33D-01  3.99D-01  4.59D-01
                    CP:  2.03D-01  1.43D-01  7.64D-01  2.39D-01  6.90D-01
                    CP:  9.40D-01  8.37D-01  5.67D-01  1.31D+00  6.07D-01
                    CP:  7.75D-01  1.07D+00  9.20D-01
 E= -5186.75749810875     Delta-E=       -0.000003058407 Rises=F Damp=F
 DIIS: error= 4.79D-05 at cycle  19 NSaved=  19.
 NSaved=19 IEnMin=19 EnMin= -5186.75749810875     IErMin=19 ErrMin= 4.79D-05
 ErrMax= 4.79D-05  0.00D+00 EMaxC= 1.00D-01 BMatC= 1.26D-05 BMatP= 3.56D-05
 IDIUse=1 WtCom= 1.00D+00 WtEn= 0.00D+00
 Coeff-Com:  0.134D-04-0.197D-04-0.318D-04-0.337D-04-0.499D-05-0.377D-04
 Coeff-Com: -0.258D-04 0.855D-03-0.757D-04 0.541D-03-0.530D-03-0.982D-03
 Coeff-Com: -0.112D-01-0.351D-02-0.120D-01-0.795D-02 0.188D+00 0.355D+00
 Coeff-Com:  0.493D+00
 Coeff:      0.134D-04-0.197D-04-0.318D-04-0.337D-04-0.499D-05-0.377D-04
 Coeff:     -0.258D-04 0.855D-03-0.757D-04 0.541D-03-0.530D-03-0.982D-03
 Coeff:     -0.112D-01-0.351D-02-0.120D-01-0.795D-02 0.188D+00 0.355D+00
 Coeff:      0.493D+00
 Gap=     0.088 Goal=   None    Shift=    0.000
 Gap=     0.013 Goal=   None    Shift=    0.000
 RMSDP=3.16D-06 MaxDP=4.37D-04 DE=-3.06D-06 OVMax= 3.61D-03

 Cycle  20  Pass 1  IDiag  1:
 RMSU=  9.11D-07    CP:  9.94D-01  1.68D+00  3.32D-01  3.99D-01  4.58D-01
                    CP:  2.03D-01  1.43D-01  7.64D-01  2.39D-01  6.91D-01
                    CP:  9.37D-01  8.32D-01  5.57D-01  1.33D+00  6.27D-01
                    CP:  7.77D-01  1.06D+00  9.17D-01  7.33D-01
 E= -5186.75750193645     Delta-E=       -0.000003827705 Rises=F Damp=F
 DIIS: error= 7.36D-06 at cycle  20 NSaved=  20.
 NSaved=20 IEnMin=20 EnMin= -5186.75750193645     IErMin=20 ErrMin= 7.36D-06
 ErrMax= 7.36D-06  0.00D+00 EMaxC= 1.00D-01 BMatC= 3.58D-07 BMatP= 1.26D-05
 IDIUse=1 WtCom= 1.00D+00 WtEn= 0.00D+00
 Coeff-Com:  0.607D-04-0.357D-04-0.182D-04-0.108D-04-0.357D-04 0.153D-04
 Coeff-Com: -0.284D-04 0.105D-03-0.402D-04 0.266D-03 0.526D-03 0.601D-04
 Coeff-Com: -0.416D-02-0.203D-03-0.292D-02-0.101D-01 0.269D-01 0.708D-01
 Coeff-Com:  0.214D+00 0.705D+00
 Coeff:      0.607D-04-0.357D-04-0.182D-04-0.108D-04-0.357D-04 0.153D-04
 Coeff:     -0.284D-04 0.105D-03-0.402D-04 0.266D-03 0.526D-03 0.601D-04
 Coeff:     -0.416D-02-0.203D-03-0.292D-02-0.101D-01 0.269D-01 0.708D-01
 Coeff:      0.214D+00 0.705D+00
 Gap=     0.088 Goal=   None    Shift=    0.000
 Gap=     0.013 Goal=   None    Shift=    0.000
 RMSDP=5.37D-07 MaxDP=8.14D-05 DE=-3.83D-06 OVMax= 4.27D-04

 Cycle  21  Pass 1  IDiag  1:
 Restarting incremental Fock formation.
 E= -5186.75750198498     Delta-E=       -0.000000048525 Rises=F Damp=F
 DIIS: error= 9.02D-06 at cycle  21 NSaved=  20.
 NSaved=20 IEnMin=20 EnMin= -5186.75750198498     IErMin=19 ErrMin= 7.36D-06
 ErrMax= 9.02D-06  0.00D+00 EMaxC= 1.00D-01 BMatC= 2.70D-07 BMatP= 3.58D-07
 IDIUse=1 WtCom= 1.00D+00 WtEn= 0.00D+00
 Coeff-Com:  0.261D-04-0.140D-04-0.304D-06-0.200D-04 0.233D-04-0.149D-04
 Coeff-Com: -0.795D-04-0.126D-04 0.533D-04 0.562D-03 0.311D-03-0.213D-03
 Coeff-Com: -0.120D-02-0.375D-03-0.549D-02-0.136D-01-0.206D-01 0.454D-01
 Coeff-Com:  0.503D+00 0.492D+00
 Coeff:      0.261D-04-0.140D-04-0.304D-06-0.200D-04 0.233D-04-0.149D-04
 Coeff:     -0.795D-04-0.126D-04 0.533D-04 0.562D-03 0.311D-03-0.213D-03
 Coeff:     -0.120D-02-0.375D-03-0.549D-02-0.136D-01-0.206D-01 0.454D-01
 Coeff:      0.503D+00 0.492D+00
 Gap=     0.087 Goal=   None    Shift=    0.000
 Gap=     0.013 Goal=   None    Shift=    0.000
 RMSDP=3.19D-07 MaxDP=4.67D-05 DE=-4.85D-08 OVMax= 2.39D-04

 Cycle  22  Pass 1  IDiag  1:
 RMSU=  3.19D-07    CP:  1.00D+00
 E= -5186.75750200682     Delta-E=       -0.000000021841 Rises=F Damp=F
 DIIS: error= 6.62D-06 at cycle  22 NSaved=  20.
 NSaved=20 IEnMin=20 EnMin= -5186.75750200682     IErMin=20 ErrMin= 6.62D-06
 ErrMax= 6.62D-06  0.00D+00 EMaxC= 1.00D-01 BMatC= 1.69D-07 BMatP= 2.70D-07
 IDIUse=1 WtCom= 1.00D+00 WtEn= 0.00D+00
 Coeff-Com:  0.127D-04-0.224D-04-0.718D-05 0.140D-04 0.284D-05-0.953D-04
 Coeff-Com:  0.222D-05-0.415D-04 0.294D-03 0.283D-03 0.153D-02-0.198D-02
 Coeff-Com: -0.284D-03-0.131D-02-0.131D-01-0.305D-01-0.222D-01 0.163D+00
 Coeff-Com:  0.378D+00 0.526D+00
 Coeff:      0.127D-04-0.224D-04-0.718D-05 0.140D-04 0.284D-05-0.953D-04
 Coeff:      0.222D-05-0.415D-04 0.294D-03 0.283D-03 0.153D-02-0.198D-02
 Coeff:     -0.284D-03-0.131D-02-0.131D-01-0.305D-01-0.222D-01 0.163D+00
 Coeff:      0.378D+00 0.526D+00
 Gap=     0.087 Goal=   None    Shift=    0.000
 Gap=     0.013 Goal=   None    Shift=    0.000
 RMSDP=1.86D-07 MaxDP=1.57D-05 DE=-2.18D-08 OVMax= 1.55D-04

 Cycle  23  Pass 1  IDiag  1:
 RMSU=  1.86D-07    CP:  1.00D+00  1.00D+00
 E= -5186.75750203644     Delta-E=       -0.000000029619 Rises=F Damp=F
 DIIS: error= 4.60D-06 at cycle  23 NSaved=  20.
 NSaved=20 IEnMin=20 EnMin= -5186.75750203644     IErMin=20 ErrMin= 4.60D-06
 ErrMax= 4.60D-06  0.00D+00 EMaxC= 1.00D-01 BMatC= 5.05D-08 BMatP= 1.69D-07
 IDIUse=1 WtCom= 1.00D+00 WtEn= 0.00D+00
 Coeff-Com:  0.201D-05-0.496D-05 0.410D-05 0.401D-05-0.322D-04 0.329D-05
 Coeff-Com: -0.769D-04 0.747D-04 0.135D-03 0.126D-02-0.164D-02-0.889D-03
 Coeff-Com:  0.219D-03-0.209D-02-0.787D-02-0.197D-01-0.456D-01 0.797D-01
 Coeff-Com:  0.280D+00 0.716D+00
 Coeff:      0.201D-05-0.496D-05 0.410D-05 0.401D-05-0.322D-04 0.329D-05
 Coeff:     -0.769D-04 0.747D-04 0.135D-03 0.126D-02-0.164D-02-0.889D-03
 Coeff:      0.219D-03-0.209D-02-0.787D-02-0.197D-01-0.456D-01 0.797D-01
 Coeff:      0.280D+00 0.716D+00
 Gap=     0.087 Goal=   None    Shift=    0.000
 Gap=     0.013 Goal=   None    Shift=    0.000
 RMSDP=1.78D-07 MaxDP=1.90D-05 DE=-2.96D-08 OVMax= 1.98D-04

 Cycle  24  Pass 1  IDiag  1:
 RMSU=  1.51D-07    CP:  1.00D+00  1.08D+00  1.48D+00
 E= -5186.75750204767     Delta-E=       -0.000000011238 Rises=F Damp=F
 DIIS: error= 8.74D-07 at cycle  24 NSaved=  20.
 NSaved=20 IEnMin=20 EnMin= -5186.75750204767     IErMin=20 ErrMin= 8.74D-07
 ErrMax= 8.74D-07  0.00D+00 EMaxC= 1.00D-01 BMatC= 5.74D-09 BMatP= 5.05D-08
 IDIUse=1 WtCom= 1.00D+00 WtEn= 0.00D+00
 Coeff-Com: -0.156D-05 0.304D-05 0.382D-06-0.329D-05 0.365D-05-0.422D-04
 Coeff-Com:  0.209D-04 0.275D-04 0.440D-03-0.862D-03-0.477D-03 0.751D-03
 Coeff-Com:  0.240D-02 0.234D-02-0.831D-02-0.670D-01-0.316D-01 0.604D-01
 Coeff-Com:  0.470D+00 0.571D+00
 Coeff:     -0.156D-05 0.304D-05 0.382D-06-0.329D-05 0.365D-05-0.422D-04
 Coeff:      0.209D-04 0.275D-04 0.440D-03-0.862D-03-0.477D-03 0.751D-03
 Coeff:      0.240D-02 0.234D-02-0.831D-02-0.670D-01-0.316D-01 0.604D-01
 Coeff:      0.470D+00 0.571D+00
 Gap=     0.087 Goal=   None    Shift=    0.000
 Gap=     0.013 Goal=   None    Shift=    0.000
 RMSDP=6.60D-08 MaxDP=5.84D-06 DE=-1.12D-08 OVMax= 6.80D-05

 Cycle  25  Pass 1  IDiag  1:
 RMSU=  3.87D-08    CP:  1.00D+00  1.11D+00  1.70D+00  1.22D+00
 E= -5186.75750204805     Delta-E=       -0.000000000375 Rises=F Damp=F
 DIIS: error= 1.19D-06 at cycle  25 NSaved=  20.
 NSaved=20 IEnMin=20 EnMin= -5186.75750204805     IErMin=19 ErrMin= 8.74D-07
 ErrMax= 1.19D-06  0.00D+00 EMaxC= 1.00D-01 BMatC= 4.44D-09 BMatP= 5.74D-09
 IDIUse=1 WtCom= 1.00D+00 WtEn= 0.00D+00
 Coeff-Com: -0.462D-06 0.203D-05-0.171D-05 0.204D-05-0.708D-05-0.170D-04
 Coeff-Com: -0.423D-04 0.611D-05-0.173D-03 0.142D-03 0.919D-03 0.186D-02
 Coeff-Com:  0.170D-02-0.483D-02-0.369D-01-0.342D-01-0.157D-01 0.168D+00
 Coeff-Com:  0.418D+00 0.502D+00
 Coeff:     -0.462D-06 0.203D-05-0.171D-05 0.204D-05-0.708D-05-0.170D-04
 Coeff:     -0.423D-04 0.611D-05-0.173D-03 0.142D-03 0.919D-03 0.186D-02
 Coeff:      0.170D-02-0.483D-02-0.369D-01-0.342D-01-0.157D-01 0.168D+00
 Coeff:      0.418D+00 0.502D+00
 Gap=     0.087 Goal=   None    Shift=    0.000
 Gap=     0.013 Goal=   None    Shift=    0.000
 RMSDP=4.53D-08 MaxDP=6.74D-06 DE=-3.75D-10 OVMax= 4.86D-05

 Cycle  26  Pass 1  IDiag  1:
 RMSU=  2.53D-08    CP:  1.00D+00  1.16D+00  1.70D+00  1.01D+00  6.39D-01
 E= -5186.75750204907     Delta-E=       -0.000000001022 Rises=F Damp=F
 DIIS: error= 2.22D-07 at cycle  26 NSaved=  20.
 NSaved=20 IEnMin=20 EnMin= -5186.75750204907     IErMin=20 ErrMin= 2.22D-07
 ErrMax= 2.22D-07  0.00D+00 EMaxC= 1.00D-01 BMatC= 3.55D-10 BMatP= 4.44D-09
 IDIUse=1 WtCom= 1.00D+00 WtEn= 0.00D+00
 Coeff-Com:  0.711D-07 0.312D-06-0.851D-06 0.291D-05-0.174D-04-0.365D-04
 Coeff-Com: -0.707D-04 0.225D-04 0.189D-03 0.558D-03 0.105D-02 0.955D-03
 Coeff-Com: -0.229D-02-0.166D-01-0.200D-01-0.212D-01 0.443D-01 0.200D+00
 Coeff-Com:  0.347D+00 0.466D+00
 Coeff:      0.711D-07 0.312D-06-0.851D-06 0.291D-05-0.174D-04-0.365D-04
 Coeff:     -0.707D-04 0.225D-04 0.189D-03 0.558D-03 0.105D-02 0.955D-03
 Coeff:     -0.229D-02-0.166D-01-0.200D-01-0.212D-01 0.443D-01 0.200D+00
 Coeff:      0.347D+00 0.466D+00
 Gap=     0.087 Goal=   None    Shift=    0.000
 Gap=     0.013 Goal=   None    Shift=    0.000
 RMSDP=1.34D-08 MaxDP=1.67D-06 DE=-1.02D-09 OVMax= 1.25D-05

 Cycle  27  Pass 1  IDiag  1:
 RMSU=  9.64D-09    CP:  1.00D+00  1.17D+00  1.72D+00  9.63D-01  6.45D-01
                    CP:  1.13D+00
 E= -5186.75750204903     Delta-E=        0.000000000044 Rises=F Damp=F
 DIIS: error= 1.35D-07 at cycle  27 NSaved=  20.
 NSaved=20 IEnMin=19 EnMin= -5186.75750204907     IErMin=20 ErrMin= 1.35D-07
 ErrMax= 1.35D-07  0.00D+00 EMaxC= 1.00D-01 BMatC= 9.58D-11 BMatP= 3.55D-10
 IDIUse=1 WtCom= 1.00D+00 WtEn= 0.00D+00
 Coeff-Com: -0.295D-06 0.177D-05 0.305D-05-0.124D-04-0.144D-04-0.130D-04
 Coeff-Com:  0.802D-04 0.743D-04 0.119D-03 0.547D-04-0.249D-04-0.755D-03
 Coeff-Com: -0.260D-02-0.385D-02-0.689D-02-0.500D-02 0.235D-01 0.808D-01
 Coeff-Com:  0.302D+00 0.612D+00
 Coeff:     -0.295D-06 0.177D-05 0.305D-05-0.124D-04-0.144D-04-0.130D-04
 Coeff:      0.802D-04 0.743D-04 0.119D-03 0.547D-04-0.249D-04-0.755D-03
 Coeff:     -0.260D-02-0.385D-02-0.689D-02-0.500D-02 0.235D-01 0.808D-01
 Coeff:      0.302D+00 0.612D+00
 Gap=     0.087 Goal=   None    Shift=    0.000
 Gap=     0.013 Goal=   None    Shift=    0.000
 RMSDP=8.23D-09 MaxDP=6.22D-07 DE= 4.37D-11 OVMax= 8.42D-06

 SCF Done:  E(UM06L) =  -5186.75750205     A.U. after   27 cycles
            NFock= 27  Conv=0.82D-08     -V/T= 2.0016
 <Sx>= 0.0000 <Sy>= 0.0000 <Sz>= 7.0000 <S**2>=56.5141 S= 7.0342
 <L.S>=  0.00000000000    
 KE= 5.178222053567D+03 PE=-2.118200748224D+04 EE= 6.380325666822D+03
 Annihilation of the first spin contaminant:
 S**2 before annihilation    56.5141,   after    56.0039
 Leave Link  502 at Mon Jan 23 19:26:09 2023, MaxMem= 14763950080 cpu:            8949.6 elap:            4508.4
 (Enter /software/commercial/gaussian/g16/AVX2/g16/l508.exe)
 QCSCF skips out because SCF is already converged.
 Leave Link  508 at Mon Jan 23 19:26:09 2023, MaxMem= 14763950080 cpu:               0.0 elap:               0.0
 (Enter /software/commercial/gaussian/g16/AVX2/g16/l601.exe)
 Copying SCF densities to generalized density rwf, IOpCl= 1 IROHF=0.

 **********************************************************************

            Population analysis using the SCF Density.

 **********************************************************************

 Alpha  occ. eigenvalues -- -255.65686-255.65393-255.62469 -30.10710 -30.10330
 Alpha  occ. eigenvalues --  -30.06981 -25.87813 -25.87740 -25.87682 -25.87541
 Alpha  occ. eigenvalues --  -25.87354 -25.87234 -25.84689 -25.84003 -25.83521
 Alpha  occ. eigenvalues --  -19.02329 -18.99656 -18.99647 -18.99604 -18.99588
 Alpha  occ. eigenvalues --  -18.99356 -18.99281 -18.99277 -18.99188 -18.98600
 Alpha  occ. eigenvalues --  -18.98569 -18.98383 -18.98313 -18.98072 -14.32415
 Alpha  occ. eigenvalues --  -14.25646 -10.19447 -10.19441 -10.18763 -10.18688
 Alpha  occ. eigenvalues --  -10.18680 -10.18601  -3.67512  -3.67151  -3.63857
 Alpha  occ. eigenvalues --   -2.41642  -2.41487  -2.41477  -2.41345  -2.41080
 Alpha  occ. eigenvalues --   -2.40853  -2.39113  -2.37713  -2.36818  -1.08645
 Alpha  occ. eigenvalues --   -1.08408  -1.07852  -1.07571  -1.07400  -1.07190
 Alpha  occ. eigenvalues --   -1.07026  -1.00591  -1.00119  -0.99872  -0.99610
 Alpha  occ. eigenvalues --   -0.99519  -0.99354  -0.95380  -0.94958  -0.60960
 Alpha  occ. eigenvalues --   -0.59665  -0.59551  -0.59336  -0.59097  -0.58902
 Alpha  occ. eigenvalues --   -0.57928  -0.51022  -0.50506  -0.50405  -0.49479
 Alpha  occ. eigenvalues --   -0.49307  -0.49224  -0.48943  -0.48570  -0.48414
 Alpha  occ. eigenvalues --   -0.47669  -0.47573  -0.47491  -0.46414  -0.46010
 Alpha  occ. eigenvalues --   -0.45635  -0.44820  -0.44229  -0.44153  -0.43376
 Alpha  occ. eigenvalues --   -0.43241  -0.41872  -0.41601  -0.41330  -0.40839
 Alpha  occ. eigenvalues --   -0.40329  -0.40259  -0.39607  -0.39269  -0.39106
 Alpha  occ. eigenvalues --   -0.39087  -0.38649  -0.37999  -0.37818  -0.37671
 Alpha  occ. eigenvalues --   -0.36553  -0.34557  -0.34099  -0.33601  -0.31626
 Alpha  occ. eigenvalues --   -0.31100  -0.31023  -0.30523  -0.30244  -0.30149
 Alpha  occ. eigenvalues --   -0.30014  -0.29926  -0.29827  -0.29082  -0.28888
 Alpha  occ. eigenvalues --   -0.28450  -0.28186  -0.27822  -0.27423  -0.26648
 Alpha  occ. eigenvalues --   -0.25975  -0.24764  -0.23849  -0.23612  -0.22812
 Alpha virt. eigenvalues --   -0.14064  -0.05315  -0.05208  -0.04179  -0.04140
 Alpha virt. eigenvalues --   -0.03939  -0.03141  -0.02898   0.01613   0.02261
 Alpha virt. eigenvalues --    0.05294   0.06004   0.07329   0.07823   0.07956
 Alpha virt. eigenvalues --    0.07977   0.08459   0.08675   0.10148   0.10429
 Alpha virt. eigenvalues --    0.11886   0.13366   0.13969   0.14886   0.16088
 Alpha virt. eigenvalues --    0.16145   0.16459   0.17580   0.17888   0.18250
 Alpha virt. eigenvalues --    0.19997   0.20944   0.21575   0.22058   0.22263
 Alpha virt. eigenvalues --    0.22325   0.22896   0.23517   0.24774   0.25198
 Alpha virt. eigenvalues --    0.25670   0.26803   0.26992   0.27350   0.27887
 Alpha virt. eigenvalues --    0.28164   0.28602   0.29190   0.29601   0.29722
 Alpha virt. eigenvalues --    0.30151   0.30786   0.31023   0.31314   0.32550
 Alpha virt. eigenvalues --    0.33208   0.33844   0.33920   0.34301   0.34552
 Alpha virt. eigenvalues --    0.34961   0.36008   0.36391   0.36645   0.37614
 Alpha virt. eigenvalues --    0.37803   0.38117   0.38461   0.39090   0.39256
 Alpha virt. eigenvalues --    0.39575   0.39751   0.40035   0.40537   0.41232
 Alpha virt. eigenvalues --    0.41649   0.41776   0.42080   0.42682   0.43136
 Alpha virt. eigenvalues --    0.43901   0.44103   0.44591   0.45305   0.45674
 Alpha virt. eigenvalues --    0.46497   0.47311   0.48275   0.48991   0.49199
 Alpha virt. eigenvalues --    0.49610   0.50654   0.51154   0.51625   0.52064
 Alpha virt. eigenvalues --    0.53643   0.54013   0.54071   0.54677   0.55055
 Alpha virt. eigenvalues --    0.55633   0.56158   0.56696   0.58033   0.58972
 Alpha virt. eigenvalues --    0.59601   0.60081   0.61844   0.62195   0.62257
 Alpha virt. eigenvalues --    0.64506   0.65282   0.65553   0.66261   0.66576
 Alpha virt. eigenvalues --    0.67324   0.67546   0.68721   0.69224   0.69376
 Alpha virt. eigenvalues --    0.70074   0.70296   0.70628   0.70714   0.70994
 Alpha virt. eigenvalues --    0.71814   0.72028   0.72571   0.72978   0.73468
 Alpha virt. eigenvalues --    0.74832   0.75186   0.75386   0.75700   0.76437
 Alpha virt. eigenvalues --    0.76509   0.78013   0.78887   0.79260   0.79997
 Alpha virt. eigenvalues --    0.80565   0.81464   0.81676   0.82933   0.84458
 Alpha virt. eigenvalues --    0.85512   0.86069   0.86279   0.87100   0.87294
 Alpha virt. eigenvalues --    0.88238   0.88847   0.89896   0.91107   0.92132
 Alpha virt. eigenvalues --    0.92553   0.92888   0.93286   0.94007   0.95615
 Alpha virt. eigenvalues --    0.95895   0.96158   0.96909   0.98083   0.98211
 Alpha virt. eigenvalues --    0.98533   0.99496   1.01142   1.01397   1.02167
 Alpha virt. eigenvalues --    1.02570   1.03379   1.03393   1.04696   1.05352
 Alpha virt. eigenvalues --    1.06087   1.06639   1.08292   1.08649   1.09315
 Alpha virt. eigenvalues --    1.10099   1.10250   1.11051   1.12613   1.15450
 Alpha virt. eigenvalues --    1.17900   1.18621   1.21322   1.21872   1.22342
 Alpha virt. eigenvalues --    1.23140   1.23825   1.24322   1.24891   1.25592
 Alpha virt. eigenvalues --    1.26340   1.27212   1.27751   1.28431   1.30307
 Alpha virt. eigenvalues --    1.32584   1.34021   1.35876   1.36843   1.38444
 Alpha virt. eigenvalues --    1.39254   1.39929   1.40896   1.41946   1.42179
 Alpha virt. eigenvalues --    1.43685   1.44814   1.45388   1.45758   1.46915
 Alpha virt. eigenvalues --    1.48108   1.48582   1.49191   1.49727   1.49922
 Alpha virt. eigenvalues --    1.50746   1.51793   1.52377   1.53291   1.53423
 Alpha virt. eigenvalues --    1.55362   1.55716   1.56960   1.58293   1.58884
 Alpha virt. eigenvalues --    1.60084   1.60535   1.61639   1.61692   1.62621
 Alpha virt. eigenvalues --    1.64669   1.66323   1.67010   1.67450   1.68552
 Alpha virt. eigenvalues --    1.69275   1.70494   1.70824   1.71860   1.74644
 Alpha virt. eigenvalues --    1.75900   1.76011   1.76259   1.78068   1.79177
 Alpha virt. eigenvalues --    1.82276   1.84697   1.85854   1.86264   1.86679
 Alpha virt. eigenvalues --    1.87377   1.87555   1.87798   1.88659   1.89386
 Alpha virt. eigenvalues --    1.89520   1.90134   1.90569   1.91554   1.92081
 Alpha virt. eigenvalues --    1.93317   1.94436   1.95367   1.95811   1.96210
 Alpha virt. eigenvalues --    1.96871   1.98143   2.00061   2.01188   2.01319
 Alpha virt. eigenvalues --    2.01753   2.02091   2.02789   2.03870   2.04665
 Alpha virt. eigenvalues --    2.05327   2.06164   2.06382   2.07451   2.08514
 Alpha virt. eigenvalues --    2.08930   2.09101   2.09998   2.11064   2.11726
 Alpha virt. eigenvalues --    2.12500   2.12944   2.13241   2.14166   2.14477
 Alpha virt. eigenvalues --    2.15653   2.15846   2.16763   2.17136   2.17655
 Alpha virt. eigenvalues --    2.19040   2.19316   2.19477   2.21150   2.22526
 Alpha virt. eigenvalues --    2.22954   2.23402   2.24288   2.24491   2.25495
 Alpha virt. eigenvalues --    2.25698   2.27414   2.28323   2.28854   2.29125
 Alpha virt. eigenvalues --    2.31476   2.31988   2.33697   2.36275   2.37943
 Alpha virt. eigenvalues --    2.39566   2.40796   2.43327   2.43476   2.46385
 Alpha virt. eigenvalues --    2.47174   2.52601   2.54054   2.56007   2.56123
 Alpha virt. eigenvalues --    2.56763   2.57090   2.60445   2.61941   2.63564
 Alpha virt. eigenvalues --    2.63892   2.64780   2.66742   2.66950   2.67680
 Alpha virt. eigenvalues --    2.68177   2.69594   2.71135   2.71791   2.73050
 Alpha virt. eigenvalues --    2.74307   2.76565   2.77786   2.78960   2.80720
 Alpha virt. eigenvalues --    2.81102   2.83235   2.84213   2.84349   2.86401
 Alpha virt. eigenvalues --    2.87888   2.90283   2.91062   2.93294   2.94096
 Alpha virt. eigenvalues --    2.95056   2.95380   2.96229   2.96998   2.97951
 Alpha virt. eigenvalues --    2.98771   2.99669   3.00278   3.00817   3.01673
 Alpha virt. eigenvalues --    3.03005   3.03407   3.04235   3.04913   3.05099
 Alpha virt. eigenvalues --    3.05673   3.06041   3.07379   3.07769   3.09864
 Alpha virt. eigenvalues --    3.10633   3.10842   3.11894   3.12346   3.12964
 Alpha virt. eigenvalues --    3.13231   3.13481   3.13851   3.14048   3.14887
 Alpha virt. eigenvalues --    3.15088   3.15376   3.15398   3.15913   3.16576
 Alpha virt. eigenvalues --    3.17132   3.19341   3.20435   3.21609   3.21952
 Alpha virt. eigenvalues --    3.23122   3.23292   3.24412   3.25904   3.27176
[...]
 Coeff:     -0.580D-02 0.200D-02 0.118D+00 0.886D+00
 Gap=     0.312 Goal=   None    Shift=    0.000
 Gap=     0.312 Goal=   None    Shift=    0.000
 RMSDP=2.62D-08 MaxDP=4.32D-07 DE=-6.99D-12 OVMax= 2.33D-07

 Cycle  10  Pass 1  IDiag  1:
 E= -109.555383783283     Delta-E=       -0.000000000000 Rises=F Damp=F
 DIIS: error= 3.59D-08 at cycle   5 NSaved=   5.
 NSaved= 5 IEnMin= 5 EnMin= -109.555383783283     IErMin= 5 ErrMin= 3.59D-08
 ErrMax= 3.59D-08  0.00D+00 EMaxC= 1.00D-01 BMatC= 2.56D-13 BMatP= 7.91D-13
 IDIUse=1 WtCom= 1.00D+00 WtEn= 0.00D+00
 Coeff-Com:  0.740D-03-0.605D-02-0.611D-01 0.305D+00 0.761D+00
 Coeff:      0.740D-03-0.605D-02-0.611D-01 0.305D+00 0.761D+00
 Gap=     0.312 Goal=   None    Shift=    0.000
 Gap=     0.312 Goal=   None    Shift=    0.000
 RMSDP=1.05D-08 MaxDP=1.39D-07 DE=-3.98D-13 OVMax= 7.54D-08

 Cycle  11  Pass 1  IDiag  1:
 E= -109.555383783282     Delta-E=        0.000000000000 Rises=F Damp=F
 DIIS: error= 6.93D-10 at cycle   6 NSaved=   6.
 NSaved= 6 IEnMin= 5 EnMin= -109.555383783283     IErMin= 6 ErrMin= 6.93D-10
 ErrMax= 6.93D-10  0.00D+00 EMaxC= 1.00D-01 BMatC= 1.50D-16 BMatP= 2.56D-13
 IDIUse=1 WtCom= 1.00D+00 WtEn= 0.00D+00
 Coeff-Com:  0.746D-04-0.509D-04-0.194D-02-0.185D-02 0.210D-01 0.983D+00
 Coeff:      0.746D-04-0.509D-04-0.194D-02-0.185D-02 0.210D-01 0.983D+00
 Gap=     0.312 Goal=   None    Shift=    0.000
 Gap=     0.312 Goal=   None    Shift=    0.000
 RMSDP=3.19D-10 MaxDP=4.42D-09 DE= 8.53D-14 OVMax= 3.39D-09

 SCF Done:  E(UM06L) =  -109.555383783     A.U. after   11 cycles
            NFock= 11  Conv=0.32D-09     -V/T= 2.0049
 <Sx>= 0.0000 <Sy>= 0.0000 <Sz>= 0.0000 <S**2>=-0.0000 S=-0.0000
 <L.S>=  0.00000000000    
 KE= 1.090182455988D+02 PE=-3.024557078291D+02 EE= 6.089846350325D+01
 Annihilation of the first spin contaminant:
 S**2 before annihilation    -0.0000,   after    -0.0000
 Leave Link  502 at Mon Jan 23 22:54:50 2023, MaxMem= 14763950080 cpu:               4.0 elap:               2.2
 (Enter /software/commercial/gaussian/g16/AVX2/g16/l508.exe)
 QCSCF skips out because SCF is already converged.
 Leave Link  508 at Mon Jan 23 22:54:50 2023, MaxMem= 14763950080 cpu:               0.0 elap:               0.0
 (Enter /software/commercial/gaussian/g16/AVX2/g16/l601.exe)
 Copying SCF densities to generalized density rwf, IOpCl= 1 IROHF=0.

 **********************************************************************

            Population analysis using the SCF Density.

 **********************************************************************

 Alpha  occ. eigenvalues --  -14.27503 -14.27410  -1.05816  -0.53061  -0.42411
 Alpha  occ. eigenvalues --   -0.42411  -0.37973
 Alpha virt. eigenvalues --   -0.06759  -0.06759   0.25862   0.27737   0.32647
 Alpha virt. eigenvalues --    0.32647   0.35147   0.44794   0.44794   0.48939
 Alpha virt. eigenvalues --    0.71564   0.83620   0.83620   1.06444   1.06444
 Alpha virt. eigenvalues --    1.26310   1.26310   1.36845   1.67725   1.67725
 Alpha virt. eigenvalues --    1.72704   1.90196   2.00931   2.00931   2.07135
 Alpha virt. eigenvalues --    2.30104   2.30104   2.54914   2.97101   3.51653
 Alpha virt. eigenvalues --    3.51653   3.62136   3.62136   3.72430   3.72430
 Alpha virt. eigenvalues --    4.15051   4.18382   4.18382   4.41731   4.41731
 Alpha virt. eigenvalues --    4.54235   4.54235   4.61712   4.61713   4.98615
 Alpha virt. eigenvalues --    5.00100   5.00100   5.07978   5.07979   6.17604
 Alpha virt. eigenvalues --    6.29896   6.29896   6.66381  31.37827  32.00722
  Beta  occ. eigenvalues --  -14.27503 -14.27410  -1.05816  -0.53061  -0.42411
  Beta  occ. eigenvalues --   -0.42411  -0.37973
  Beta virt. eigenvalues --   -0.06759  -0.06759   0.25862   0.27737   0.32647
  Beta virt. eigenvalues --    0.32647   0.35147   0.44794   0.44794   0.48939
  Beta virt. eigenvalues --    0.71564   0.83620   0.83620   1.06444   1.06444
  Beta virt. eigenvalues --    1.26310   1.26310   1.36845   1.67725   1.67725
  Beta virt. eigenvalues --    1.72704   1.90196   2.00931   2.00931   2.07135
  Beta virt. eigenvalues --    2.30104   2.30104   2.54914   2.97101   3.51653
  Beta virt. eigenvalues --    3.51653   3.62136   3.62136   3.72430   3.72430
  Beta virt. eigenvalues --    4.15051   4.18382   4.18382   4.41731   4.41731
  Beta virt. eigenvalues --    4.54235   4.54235   4.61712   4.61713   4.98615
  Beta virt. eigenvalues --    5.00100   5.00100   5.07978   5.07979   6.17604
  Beta virt. eigenvalues --    6.29896   6.29896   6.66381  31.37827  32.00722
          Condensed to atoms (all electrons):
              29         30
    29  N    6.640276   0.359724
    30  N    0.359724   6.640276
          Atomic-Atomic Spin Densities.
              29         30
    29  N    0.000000   0.000000
    30  N    0.000000   0.000000
 Mulliken charges and spin densities:
               1          2
     1  O    0.000000   0.000000
     2  O    0.000000   0.000000
     3  C    0.000000   0.000000
     4  H    0.000000   0.000000
     5  O    0.000000   0.000000
     6  O    0.000000   0.000000
     7  C    0.000000   0.000000
     8  H    0.000000   0.000000
     9  O    0.000000   0.000000
    10  O    0.000000   0.000000
    11  O    0.000000   0.000000
    12  C    0.000000   0.000000
    13  H    0.000000   0.000000
    14  O    0.000000   0.000000
    15  O    0.000000   0.000000
    16  C    0.000000   0.000000
    17  H    0.000000   0.000000
    18  Fe   0.000000   0.000000
    19  O    0.000000   0.000000
    20  Fe   0.000000   0.000000
    21  O    0.000000   0.000000
    22  O    0.000000   0.000000
    23  Fe   0.000000   0.000000
    24  O    0.000000   0.000000
    25  C    0.000000   0.000000
    26  H    0.000000   0.000000
    27  C    0.000000   0.000000
    28  H    0.000000   0.000000
    29  N    0.000000   0.000000
    30  N   -0.000000   0.000000
    31  O    0.000000   0.000000
 Sum of Mulliken charges =  -0.00000   0.00000
 Mulliken charges and spin densities with hydrogens summed into heavy atoms:
               1          2
     1  O    0.000000   0.000000
     2  O    0.000000   0.000000
     3  C    0.000000   0.000000
     5  O    0.000000   0.000000
     6  O    0.000000   0.000000
     7  C    0.000000   0.000000
     9  O    0.000000   0.000000
    10  O    0.000000   0.000000
    11  O    0.000000   0.000000
    12  C    0.000000   0.000000
    14  O    0.000000   0.000000
    15  O    0.000000   0.000000
    16  C    0.000000   0.000000
    18  Fe   0.000000   0.000000
    19  O    0.000000   0.000000
    20  Fe   0.000000   0.000000
    21  O    0.000000   0.000000
    22  O    0.000000   0.000000
    23  Fe   0.000000   0.000000
    24  O    0.000000   0.000000
    25  C    0.000000   0.000000
    27  C    0.000000   0.000000
    29  N    0.000000   0.000000
    30  N   -0.000000   0.000000
    31  O    0.000000   0.000000
         Mulliken charges and spin densities condensed to fragments:
      1      0.000000      0.000000
      2     -0.000000      0.000000
 Electronic spatial extent (au):  <R**2>=           1341.9124
 Charge=             -0.0000 electrons
 Dipole moment (field-independent basis, Debye):
    X=             -0.0000    Y=             -0.0000    Z=             -0.0000  Tot=              0.0000
 Quadrupole moment (field-independent basis, Debye-Ang):
   XX=            -11.6743   YY=            -10.1120   ZZ=            -10.1196
   XY=             -0.0106   XZ=             -0.1095   YZ=             -0.0007
 Traceless Quadrupole moment (field-independent basis, Debye-Ang):
   XX=             -1.0390   YY=              0.5233   ZZ=              0.5157
   XY=             -0.0106   XZ=             -0.1095   YZ=             -0.0007
 Octapole moment (field-independent basis, Debye-Ang**2):
  XXX=           -178.5196  YYY=              4.6550  ZZZ=             -6.3006  XYY=            -51.5398
  XXY=              1.6837  XXZ=             -3.5390  XZZ=            -51.6273  YZZ=              1.5525
  YYZ=             -2.0984  XYZ=              0.0108
 Hexadecapole moment (field-independent basis, Debye-Ang**3):
 XXXX=          -1852.1843 YYYY=             -9.8398 ZZZZ=            -11.1297 XXXY=             26.4809
 XXXZ=            -46.5119 YYYX=             23.6551 YYYZ=              0.9610 ZZZX=            -32.8743
 ZZZY=              0.9617 XXYY=           -269.3098 XXZZ=           -270.2617 YYZZ=             -3.4947
 XXYZ=              0.4986 YYXZ=            -10.9458 ZZXY=              7.8961
 N-N= 2.298361494379D+01 E-N=-3.024557078600D+02  KE= 1.090182455988D+02
 There are a total of       43812 grid points.
 ElSum from          density=       14.0000000715
 ElSum from atomic densities=       14.0000000647
 Hirshfeld populations at iteration   1 (CA, CB, DipXYZ):
               1          2          3          4          5
     1  O    0.000000   0.000000   0.000000   0.000000   0.000000
     2  O    0.000000   0.000000   0.000000   0.000000   0.000000
     3  C    0.000000   0.000000   0.000000   0.000000   0.000000
     4  H    0.000000   0.000000   0.000000   0.000000   0.000000
     5  O    0.000000   0.000000   0.000000   0.000000   0.000000
     6  O    0.000000   0.000000   0.000000   0.000000   0.000000
     7  C    0.000000   0.000000   0.000000   0.000000   0.000000
     8  H    0.000000   0.000000   0.000000   0.000000   0.000000
     9  O    0.000000   0.000000   0.000000   0.000000   0.000000
    10  O    0.000000   0.000000   0.000000   0.000000   0.000000
    11  O    0.000000   0.000000   0.000000   0.000000   0.000000
    12  C    0.000000   0.000000   0.000000   0.000000   0.000000
    13  H    0.000000   0.000000   0.000000   0.000000   0.000000
    14  O    0.000000   0.000000   0.000000   0.000000   0.000000
    15  O    0.000000   0.000000   0.000000   0.000000   0.000000
    16  C    0.000000   0.000000   0.000000   0.000000   0.000000
    17  H    0.000000   0.000000   0.000000   0.000000   0.000000
    18  Fe   0.000000   0.000000   0.000000   0.000000   0.000000
    19  O    0.000000   0.000000   0.000000   0.000000   0.000000
    20  Fe   0.000000   0.000000   0.000000   0.000000   0.000000
    21  O    0.000000   0.000000   0.000000   0.000000   0.000000
    22  O    0.000000   0.000000   0.000000   0.000000   0.000000
    23  Fe   0.000000   0.000000   0.000000   0.000000   0.000000
    24  O    0.000000   0.000000   0.000000   0.000000   0.000000
    25  C    0.000000   0.000000   0.000000   0.000000   0.000000
    26  H    0.000000   0.000000   0.000000   0.000000   0.000000
    27  C    0.000000   0.000000   0.000000   0.000000   0.000000
    28  H    0.000000   0.000000   0.000000   0.000000   0.000000
    29  N    3.500000   3.500000   0.051563   0.000349   0.003613
    30  N    3.500000   3.500000  -0.051563  -0.000349  -0.003613
    31  O    0.000000   0.000000   0.000000   0.000000   0.000000
       Tot   7.000000   7.000000  -0.000000  -0.000000   0.000000

 Dip from Atomic Chgs             -0.000001   0.000000  -0.000000
         Total Dipole             -0.000001   0.000000  -0.000000

 Hirshfeld charges, spin densities, dipoles, and CM5 charges using IRadAn=      5:
              Q-H        S-H        Dx         Dy         Dz        Q-CM5   
     1  O    0.000000   0.000000   0.000000   0.000000   0.000000   0.000000
     2  O    0.000000   0.000000   0.000000   0.000000   0.000000   0.000000
     3  C    0.000000   0.000000   0.000000   0.000000   0.000000   0.000000
     4  H    0.000000   0.000000   0.000000   0.000000   0.000000   0.000000
     5  O    0.000000   0.000000   0.000000   0.000000   0.000000   0.000000
     6  O    0.000000   0.000000   0.000000   0.000000   0.000000   0.000000
     7  C    0.000000   0.000000   0.000000   0.000000   0.000000   0.000000
     8  H    0.000000   0.000000   0.000000   0.000000   0.000000   0.000000
     9  O    0.000000   0.000000   0.000000   0.000000   0.000000   0.000000
    10  O    0.000000   0.000000   0.000000   0.000000   0.000000   0.000000
    11  O    0.000000   0.000000   0.000000   0.000000   0.000000   0.000000
    12  C    0.000000   0.000000   0.000000   0.000000   0.000000   0.000000
    13  H    0.000000   0.000000   0.000000   0.000000   0.000000   0.000000
    14  O    0.000000   0.000000   0.000000   0.000000   0.000000   0.000000
    15  O    0.000000   0.000000   0.000000   0.000000   0.000000   0.000000
    16  C    0.000000   0.000000   0.000000   0.000000   0.000000   0.000000
    17  H    0.000000   0.000000   0.000000   0.000000   0.000000   0.000000
    18  Fe   0.000000   0.000000   0.000000   0.000000   0.000000   0.000000
    19  O    0.000000   0.000000   0.000000   0.000000   0.000000   0.000000
    20  Fe   0.000000   0.000000   0.000000   0.000000   0.000000   0.000000
    21  O    0.000000   0.000000   0.000000   0.000000   0.000000   0.000000
    22  O    0.000000   0.000000   0.000000   0.000000   0.000000   0.000000
    23  Fe   0.000000   0.000000   0.000000   0.000000   0.000000   0.000000
    24  O    0.000000   0.000000   0.000000   0.000000   0.000000   0.000000
    25  C    0.000000   0.000000   0.000000   0.000000   0.000000   0.000000
    26  H    0.000000   0.000000   0.000000   0.000000   0.000000   0.000000
    27  C    0.000000   0.000000   0.000000   0.000000   0.000000   0.000000
    28  H    0.000000   0.000000   0.000000   0.000000   0.000000   0.000000
    29  N   -0.000000   0.000000   0.051563   0.000349   0.003613  -0.000000
    30  N   -0.000000   0.000000  -0.051563  -0.000349  -0.003613  -0.000000
    31  O    0.000000   0.000000   0.000000   0.000000   0.000000   0.000000
       Tot  -0.000000   0.000000  -0.000000  -0.000000   0.000000  -0.000000
 Hirshfeld charges and spin densities with hydrogens summed into heavy atoms:
              Q-H        S-H       Q-CM5   
     1  O    0.000000   0.000000   0.000000
     2  O    0.000000   0.000000   0.000000
     3  C    0.000000   0.000000   0.000000
     5  O    0.000000   0.000000   0.000000
     6  O    0.000000   0.000000   0.000000
     7  C    0.000000   0.000000   0.000000
     9  O    0.000000   0.000000   0.000000
    10  O    0.000000   0.000000   0.000000
    11  O    0.000000   0.000000   0.000000
    12  C    0.000000   0.000000   0.000000
    14  O    0.000000   0.000000   0.000000
    15  O    0.000000   0.000000   0.000000
    16  C    0.000000   0.000000   0.000000
    18  Fe   0.000000   0.000000   0.000000
    19  O    0.000000   0.000000   0.000000
    20  Fe   0.000000   0.000000   0.000000
    21  O    0.000000   0.000000   0.000000
    22  O    0.000000   0.000000   0.000000
    23  Fe   0.000000   0.000000   0.000000
    24  O    0.000000   0.000000   0.000000
    25  C    0.000000   0.000000   0.000000
    27  C    0.000000   0.000000   0.000000
    29  N   -0.000000   0.000000  -0.000000
    30  N   -0.000000   0.000000  -0.000000
    31  O    0.000000   0.000000   0.000000
         Hirshfeld charges and spin densities condensed to fragments:
      1      0.000000      0.000000
      2     -0.000000      0.000000
 
 EQQ=  0.00000000000     EQD=  0.00000000000     EDD=-0.275734902499E-03
 EQQ+QD+DD=-0.275734902499E-03
 
                          Isotropic Fermi Contact Couplings
        Atom                 a.u.       MegaHertz       Gauss      10(-4) cm-1
    29  N(14)              0.00000       0.00000       0.00000       0.00000
    30  N(14)              0.00000       0.00000       0.00000       0.00000
 --------------------------------------------------------
       Center         ----  Spin Dipole Couplings  ----
                      3XX-RR        3YY-RR        3ZZ-RR
 --------------------------------------------------------
    29   Atom        0.000000      0.000000      0.000000
    30   Atom        0.000000      0.000000      0.000000
 --------------------------------------------------------
                        XY            XZ            YZ
 --------------------------------------------------------
    29   Atom        0.000000      0.000000      0.000000
    30   Atom        0.000000      0.000000      0.000000
 --------------------------------------------------------


 ---------------------------------------------------------------------------------
              Anisotropic Spin Dipole Couplings in Principal Axis System
 ---------------------------------------------------------------------------------

       Atom             a.u.   MegaHertz   Gauss  10(-4) cm-1        Axes

              Baa     0.0000     0.000     0.000     0.000  1.0000  0.0000  0.0000
    29 N(14)  Bbb     0.0000     0.000     0.000     0.000 -0.0000  1.0000  0.0000
              Bcc     0.0000     0.000     0.000     0.000  0.0000  0.0000  1.0000
 
              Baa     0.0000     0.000     0.000     0.000  1.0000  0.0000  0.0000
    30 N(14)  Bbb     0.0000     0.000     0.000     0.000 -0.0000  1.0000  0.0000
              Bcc     0.0000     0.000     0.000     0.000  0.0000  0.0000  1.0000
 

 ---------------------------------------------------------------------------------

 No NMR shielding tensors so no spin-rotation constants.
 Leave Link  601 at Mon Jan 23 22:54:51 2023, MaxMem= 14763950080 cpu:               0.3 elap:               0.3
 (Enter /software/commercial/gaussian/g16/AVX2/g16/l122.exe)
 CPIOFr:  IOpCl= 1 IRwI=-1 IRwCP=  731 ICalc=  4 LCPTot=     1101821 Len1MO=     3656060 IndFrg=    19382121
 Restoring MOs from calculation   1 to rwf.
 CPIOFr:  IOpCl= 1 IRwI=-2 IRwCP=  731 ICalc=  0 LCPTot=     1101821 Len1MO=     3656060 IndFrg=     4757881
 Counterpoise corrected energy =   -5186.756393310859
                   BSSE energy =       0.001108738169
              sum of fragments =   -5186.780495696498
           complexation energy =      14.43 kcal/mole (raw)
           complexation energy =      15.12 kcal/mole (corrected)
 Leave Link  122 at Mon Jan 23 22:54:51 2023, MaxMem= 14763950080 cpu:               0.1 elap:               0.5
 (Enter /software/commercial/gaussian/g16/AVX2/g16/l9999.exe)
 Unable to Open any file for archive entry.
 1\1\GINC-NODE0168\SP\UM06L\Gen\C6H6Fe3N2O14(15)\SVICCHI\23-Jan-2023\0\
 \#p gen um06l int=grid=ultrafine scf=(xqc,intrep,maxconventionalcycle=
 150) pop=(hirshfeld) nosymm counterpoise=2\\FeFeFe-TS1-0xH2O-counterpo
 ise\\0,15\O,0,-0.828938,2.542444,-1.366094\O,0,1.263366,1.736089,-1.60
 0471\C,0,0.307698,2.467253,-1.91127\H,0,0.457935,3.141293,-2.77175\O,0
 ,-2.405582,-1.65608,1.472885\O,0,-2.926763,0.534281,1.373294\C,0,-3.04
 057,-0.630019,1.818326\H,0,-3.788551,-0.774534,2.615536\O,0,1.820472,-
 1.168593,-1.409645\O,0,-2.949495,0.718169,-1.392449\O,0,-2.564485,-1.4
 99739,-1.289939\C,0,-3.14348,-0.477373,-1.72119\H,0,-3.918089,-0.64520
 8,-2.487799\O,0,1.239932,1.929633,1.337861\O,0,-0.93421,2.520305,1.460
 85\C,0,0.280405,2.563517,1.808345\H,0,0.501005,3.256528,2.637985\Fe,0,
 1.633086,0.426878,-0.042157\O,0,1.875358,-0.966365,1.511081\Fe,0,-1.00
 4914,-1.739069,0.013224\O,0,0.246876,-2.518411,1.347344\O,0,0.0341,-2.
 54722,-1.468472\Fe,0,-1.644884,1.368305,0.01259\O,0,-0.380066,0.000334
 ,-0.000126\C,0,1.299659,-2.018273,1.835142\H,0,1.753514,-2.60405,2.653
 338\C,0,1.168543,-2.131084,-1.84513\H,0,1.620772,-2.710834,-2.668257\N
 ,0,4.534526,-0.157252,0.168108\N,0,5.659922,-0.149645,0.246968\O,0,3.4
 4756,0.778496,-0.065312\\Version=ES64L-G16RevC.02\HF=-109.5553838\S2=0
 .\S2-1=0.\S2A=0.\RMSD=3.185e-10\Dipole=-0.8371422,-0.1937162,0.0175095
 \Quadrupole=-4.8711976,-0.1706479,5.0418454,-1.301408,0.1112353,0.0888
 319\PG=C01 [X(C6H6Fe3N2O14)]\\@
 The archive entry for this job was punched.


 K N O W I N G  IS A BARRIER WHICH PREVENTS LEARNING

                     -- TEACHING OF THE BENE GESSERIT
 Job cpu time:       0 days  9 hours 23 minutes 19.1 seconds.
 Elapsed time:       0 days  4 hours 44 minutes  0.1 seconds.
 File lengths (MBytes):  RWF=    892 Int=      0 D2E=      0 Chk=    194 Scr=      1
 Normal termination of Gaussian 16 at Mon Jan 23 22:54:53 2023.
