 Entering Gaussian System, Link 0=g16
 Input=FeFeFe-B-2xH2O-freq.gjf
 Output=FeFeFe-B-2xH2O-freq.log
 AtFile(1): /zfs/curium/svicchi/00-MOF/01-Gaussian/zw-basis-set/def2-TZVP/H.gbs
            !----------------------------------------------------------------------
            ! Basis Set Exchange
            ! Version v0.9
            ! https://www.basissetexchange.org
            !----------------------------------------------------------------------
            !   Basis set: def2-TZVP
            ! Description: def2-TZVP
            !        Role: orbital
            !     Version: 1  (Data from Turbomole 7.3)
            !----------------------------------------------------------------------
            H     0
            S    3   1.00
                 34.0613410              0.60251978D-02
                  5.1235746              0.45021094D-01
                  1.1646626              0.20189726
            S    1   1.00
                  0.32723041             1.0000000
            S    1   1.00
                  0.10307241             1.0000000
            P    1   1.00
                  0.8000000              1.0000000
 AtFile(1): /zfs/curium/svicchi/00-MOF/01-Gaussian/zw-basis-set/def2-TZVP/O.gbs
            !----------------------------------------------------------------------
            ! Basis Set Exchange
            ! Version v0.9
            ! https://www.basissetexchange.org
            !----------------------------------------------------------------------
            !   Basis set: def2-TZVP
            ! Description: def2-TZVP
            !        Role: orbital
            !     Version: 1  (Data from Turbomole 7.3)
            !----------------------------------------------------------------------
            O     0
            S    6   1.00
              27032.3826310              0.21726302465D-03
               4052.3871392              0.16838662199D-02
                922.32722710             0.87395616265D-02
                261.24070989             0.35239968808D-01
                 85.354641351            0.11153519115
                 31.035035245            0.25588953961
            S    2   1.00
                 12.260860728            0.39768730901
                  4.9987076005           0.24627849430
            S    1   1.00
                  1.1703108158           1.0000000
            S    1   1.00
                  0.46474740994          1.0000000
            S    1   1.00
                  0.18504536357          1.0000000
            P    4   1.00
                 63.274954801            0.60685103418D-02
                 14.627049379            0.41912575824D-01
                  4.4501223456           0.16153841088
                  1.5275799647           0.35706951311
            P    1   1.00
                  0.52935117943           .44794207502
            P    1   1.00
                  0.17478421270           .24446069663
            D    1   1.00
                  2.31400000             1.0000000
            D    1   1.00
                  0.64500000             1.0000000
            F    1   1.00
                  1.42800000             1.0000000
 AtFile(1): /zfs/curium/svicchi/00-MOF/01-Gaussian/zw-basis-set/def2-TZVP/C.gbs
            !----------------------------------------------------------------------
            ! Basis Set Exchange
            ! Version v0.9
            ! https://www.basissetexchange.org
            !----------------------------------------------------------------------
            !   Basis set: def2-TZVP
            ! Description: def2-TZVP
            !        Role: orbital
            !     Version: 1  (Data from Turbomole 7.3)
            !----------------------------------------------------------------------
            C     0
            S    6   1.00
              13575.3496820              0.22245814352D-03
               2035.2333680              0.17232738252D-02
                463.22562359             0.89255715314D-02
                131.20019598             0.35727984502D-01
                 42.853015891            0.11076259931
                 15.584185766            0.24295627626
            S    2   1.00
                  6.2067138508           0.41440263448
                  2.5764896527           0.23744968655
            S    1   1.00
                  0.57696339419          1.0000000
            S    1   1.00
                  0.22972831358          1.0000000
            S    1   1.00
                  0.95164440028D-01      1.0000000
            P    4   1.00
                 34.697232244            0.53333657805D-02
                  7.9582622826           0.35864109092D-01
                  2.3780826883           0.14215873329
                  0.81433208183          0.34270471845
            P    1   1.00
                  0.28887547253           .46445822433
            P    1   1.00
                  0.10056823671           .24955789874
            D    1   1.00
                  1.09700000             1.0000000
            D    1   1.00
                  0.31800000             1.0000000
            F    1   1.00
                  0.76100000             1.0000000
 AtFile(1): /zfs/curium/svicchi/00-MOF/01-Gaussian/zw-basis-set/def2-TZVP/Fe.gbs
            !----------------------------------------------------------------------
            ! Basis Set Exchange
            ! Version v0.9
            ! https://www.basissetexchange.org
            !----------------------------------------------------------------------
            !   Basis set: def2-TZVP
            ! Description: def2-TZVP
            !        Role: orbital
            !     Version: 1  (Data from Turbomole 7.3)
            !----------------------------------------------------------------------
            Fe     0
            S    8   1.00
             300784.8463700              0.22806273096D-03
              45088.9705570              0.17681788761D-02
              10262.5163170              0.91927083490D-02
               2905.2897293              0.37355495807D-01
                946.11487137             0.12151108426
                339.87832894             0.28818881468
                131.94425588             0.41126612677
                 52.111494077            0.21518583573
            S    4   1.00
                329.48839267            -0.24745216477D-01
                101.92332739            -0.11683089050
                 16.240462745            0.55293621136
                  6.8840675801           0.53601640182
            S    2   1.00
                 10.470693782           -0.22912708577
                  1.7360039648           0.71159319984
            S    1   1.00
                  0.72577288979          1.0000000
            S    1   1.00
                  0.11595528203          1.0000000
            S    1   1.00
                  0.41968227746D-01      1.0000000
            P    6   1.00
               1585.3959970              0.23793960179D-02
                375.38006499             0.19253154755D-01
                120.31816501             0.90021836536D-01
                 44.788749031            0.25798172356
                 17.829278584            0.41492649744
                  7.2247153786           0.24207474784
            P    3   1.00
                 28.143219756           -0.29041755152D-01
                  3.8743241412           0.55312260343
                  1.5410752281           0.96771136842
            P    1   1.00
                  0.58285615250          1.0000000
            P    1   1.00
                  0.1349150              1.0000000
            D    4   1.00
                 61.996675034            0.11971972255D-01
                 17.873732552            0.73210135410D-01
                  6.2744782934           0.23103094314
                  2.3552337175           0.39910706494
            D    1   1.00
                  0.85432239901           .41391589765
            D    1   1.00
                  0.27869254413           .21909269782
            D    1   1.00
                  0.0910000              1.0000000
            F    1   1.00
                  1.5980000              1.0000000
 AtFile(1): /zfs/curium/svicchi/00-MOF/01-Gaussian/zw-basis-set/def2-TZVP/N.gbs
            !----------------------------------------------------------------------
            ! Basis Set Exchange
            ! Version v0.9
            ! https://www.basissetexchange.org
            !----------------------------------------------------------------------
            !   Basis set: def2-TZVP
            ! Description: def2-TZVP
            !        Role: orbital
            !     Version: 1  (Data from Turbomole 7.3)
            !----------------------------------------------------------------------
            N     0
            S    6   1.00
              19730.8006470              0.21887984991D-03
               2957.8958745              0.16960708803D-02
                673.22133595             0.87954603538D-02
                190.68249494             0.35359382605D-01
                 62.295441898            0.11095789217
                 22.654161182            0.24982972552
            S    2   1.00
                  8.9791477428           0.40623896148
                  3.6863002370           0.24338217176
            S    1   1.00
                  0.84660076805          1.0000000
            S    1   1.00
                  0.33647133771          1.0000000
            S    1   1.00
                  0.13647653675          1.0000000
            P    4   1.00
                 49.200380510            0.55552416751D-02
                 11.346790537            0.38052379723D-01
                  3.4273972411           0.14953671029
                  1.1785525134           0.34949305230
            P    1   1.00
                  0.41642204972           .45843153697
            P    1   1.00
                  0.14260826011           .24428771672
            D    1   1.00
                  1.65400000             1.0000000
            D    1   1.00
                  0.46900000             1.0000000
            F    1   1.00
                  1.09300000             1.0000000
 Initial command:
 /software/commercial/gaussian/g16/AVX2/g16/l1.exe "/scratch1/svicchi/G09-93351.pbs02/Gau-3912713.inp" -scrdir="/scratch1/svicchi/G09-93351.pbs02/"
 Entering Link 1 = /software/commercial/gaussian/g16/AVX2/g16/l1.exe PID=   3912714.
  
 Copyright (c) 1988-2021, Gaussian, Inc.  All Rights Reserved.
  
 This is part of the Gaussian(R) 16 program.  It is based on
 the Gaussian(R) 09 system (copyright 2009, Gaussian, Inc.),
 the Gaussian(R) 03 system (copyright 2003, Gaussian, Inc.),
 the Gaussian(R) 98 system (copyright 1998, Gaussian, Inc.),
 the Gaussian(R) 94 system (copyright 1995, Gaussian, Inc.),
 the Gaussian 92(TM) system (copyright 1992, Gaussian, Inc.),
 the Gaussian 90(TM) system (copyright 1990, Gaussian, Inc.),
 the Gaussian 88(TM) system (copyright 1988, Gaussian, Inc.),
 the Gaussian 86(TM) system (copyright 1986, Carnegie Mellon
 University), and the Gaussian 82(TM) system (copyright 1983,
 Carnegie Mellon University). Gaussian is a federally registered
 trademark of Gaussian, Inc.
  
 This software contains proprietary and confidential information,
 including trade secrets, belonging to Gaussian, Inc.
  
 This software is provided under written license and may be
 used, copied, transmitted, or stored only in accord with that
 written license.
  
 The following legend is applicable only to US Government
 contracts under FAR:
  
                    RESTRICTED RIGHTS LEGEND
  
 Use, reproduction and disclosure by the US Government is
 subject to restrictions as set forth in subparagraphs (a)
 and (c) of the Commercial Computer Software - Restricted
 Rights clause in FAR 52.227-19.
  
 Gaussian, Inc.
 340 Quinnipiac St., Bldg. 40, Wallingford CT 06492
  
  
 ---------------------------------------------------------------
 Warning -- This program may not be used in any manner that
 competes with the business of Gaussian, Inc. or will provide
 assistance to any competitor of Gaussian, Inc.  The licensee
 of this program is prohibited from giving any competitor of
 Gaussian, Inc. access to this program.  By using this program,
 the user acknowledges that Gaussian, Inc. is engaged in the
 business of creating and licensing software in the field of
 computational chemistry and represents and warrants to the
 licensee that it is not a competitor of Gaussian, Inc. and that
 it will not use this program in any manner prohibited above.
 ---------------------------------------------------------------
  

 Cite this work as:
 Gaussian 16, Revision C.02,
 M. J. Frisch, G. W. Trucks, H. B. Schlegel, G. E. Scuseria, 
 M. A. Robb, J. R. Cheeseman, G. Scalmani, V. Barone, 
 G. A. Petersson, H. Nakatsuji, X. Li, M. Caricato, A. V. Marenich, 
 J. Bloino, B. G. Janesko, R. Gomperts, B. Mennucci, H. P. Hratchian, 
 J. V. Ortiz, A. F. Izmaylov, J. L. Sonnenberg, D. Williams-Young, 
 F. Ding, F. Lipparini, F. Egidi, J. Goings, B. Peng, A. Petrone, 
 T. Henderson, D. Ranasinghe, V. G. Zakrzewski, J. Gao, N. Rega, 
 G. Zheng, W. Liang, M. Hada, M. Ehara, K. Toyota, R. Fukuda, 
 J. Hasegawa, M. Ishida, T. Nakajima, Y. Honda, O. Kitao, H. Nakai, 
 T. Vreven, K. Throssell, J. A. Montgomery, Jr., J. E. Peralta, 
 F. Ogliaro, M. J. Bearpark, J. J. Heyd, E. N. Brothers, K. N. Kudin, 
 V. N. Staroverov, T. A. Keith, R. Kobayashi, J. Normand, 
 K. Raghavachari, A. P. Rendell, J. C. Burant, S. S. Iyengar, 
 J. Tomasi, M. Cossi, J. M. Millam, M. Klene, C. Adamo, R. Cammi, 
 J. W. Ochterski, R. L. Martin, K. Morokuma, O. Farkas, 
 J. B. Foresman, and D. J. Fox, Gaussian, Inc., Wallingford CT, 2019.
 
 ******************************************
 Gaussian 16:  ES64L-G16RevC.02  7-Dec-2021
                 4-Feb-2023 
 ******************************************
 %NProcShared=2
 Will use up to    2 processors via shared memory.
 %mem=110gb
 %chk=/scratch1/svicchi/G09-93351.pbs02/02-freq/FeFeFe-B-2xH2O-freq.chk
 ----------------------------------------------------------------------
 #p freq=raman scale=0.967 guess=read geom=allcheck gen um06l int=grid=
 ultrafine scf=(xqc,intrep,maxconventionalcycle=150) pop=(hirshfeld) no
 symm
 ----------------------------------------------------------------------
 1/10=4,29=7,30=1,38=1,114=967000/1,3;
 2/12=2,15=1,40=1/2;
 3/5=7,11=2,14=-4,25=1,30=1,71=2,74=-53,75=-5,116=2,140=1/1,2,3;
 4/5=1/1;
 5/5=2,8=3,13=1,17=20,38=6,85=150,98=1/2,8;
 8/6=4,10=90,11=11/1;
 10/13=10,15=4,31=1/2;
 11/6=3,8=1,9=11,15=111,16=1,31=1/1,2,10;
 10/6=1,31=1/2;
 6/7=2,8=2,9=2,10=2,28=1,79=1/1;
 7/8=1,10=1,25=1,30=1/1,2,3,16;
 1/10=4,30=1/3;
 99//99;
 Leave Link    1 at Sat Feb  4 21:45:55 2023, MaxMem= 14763950080 cpu:               0.0 elap:               2.7
 (Enter /software/commercial/gaussian/g16/AVX2/g16/l101.exe)
 Structure from the checkpoint file:  "/scratch1/svicchi/G09-93351.pbs02/02-freq/FeFeFe-B-2xH2O-freq.chk"
 --------------
 FeFeFe-B-2xH2O
 --------------
 Charge =  0 Multiplicity =15
 No Z-Matrix found in chk file; cartesian coordinates used.
  O                                                 1.654103509549     -2.108059900846     -1.587074887493
  O                                                -0.526168727052     -2.513544163711     -1.174096077932
  C                                                 0.537149922411     -2.671063338435     -1.786763744856
  H                                                 0.527498787696     -3.401721348801     -2.615710895296
  O                                                 1.866797144260      2.236070138936      1.180183873666
  O                                                 2.946151471946      0.272944567171      1.382120543080
  C                                                 2.738627608840      1.475549930237      1.659291084102
  H                                                 3.410979611291      1.918495253384      2.414971743779
  O                                                -2.106049320686     -0.130304985908     -1.490690042206
  O                                                 2.809526911865      0.486538535287     -1.438213278187
  O                                                 1.382451359665      2.213978077910     -1.624194342648
  C                                                 2.384884741678      1.541889298827     -1.958104798750
  H                                                 2.965823098559      1.931569609731     -2.813410442431
  O                                                -0.584440779188     -2.098589671706      1.776049753717
  O                                                 1.609911699607     -2.281859385815      1.281187378334
  C                                                 0.576307219393     -2.489456858411      1.976702078301
  H                                                 0.733871251542     -3.106473942415      2.878450803318
  Fe                                               -1.396191604023     -1.141066519369      0.150472713651
  O                                                -2.203912172394      0.274962341297      1.466601843076
  Fe                                                0.148469742903      1.859446641923      0.029179338616
  O                                                -0.904178706653      2.103791318562      1.700790726555
  O                                                -1.425527263834      1.996524250280     -1.166060478195
  Fe                                                1.981818605530     -0.843968539818     -0.028617831233
  O                                                 0.287423494828     -0.023407965382      0.040072581524
  C                                                -1.845343638996      1.324054368804      2.022954315143
  H                                                -2.420176360279      1.633154130323      2.913996260301
  C                                                -2.066456836273      1.081652953523     -1.755757638658
  H                                                -2.672759778367      1.412662797816     -2.616461007482
  N                                                -5.515819594207     -0.072340759047      0.495910704492
  N                                                -4.965038810536      0.637725978323     -0.129773752926
  O                                                -2.744409028292     -2.031597109824      0.238135137296
  O                                                 0.240212362089      4.067771382418     -0.006180520235
  H                                                 0.710570157723      4.243419786666     -0.831888328143
  H                                                 0.879618983476      4.249023458780      0.695781048801
  O                                                 3.996324505685     -1.719636674603     -0.363906157668
  H                                                 4.470076777356     -0.986613603852     -0.778106789223
  H                                                 3.775743652886     -2.312159052261     -1.097029914191
 Recover connectivity data from disk.
 ITRead=  0  0  0  0  0  0  0  0  0  0  0  0  0  0  0  0  0  0  0  0
 ITRead=  0  0  0  0  0  0  0  0  0  0  0  0  0  0  0  0  0
 MicOpt= -1 -1 -1 -1 -1 -1 -1 -1 -1 -1 -1 -1 -1 -1 -1 -1 -1 -1 -1 -1
 MicOpt= -1 -1 -1 -1 -1 -1 -1 -1 -1 -1 -1 -1 -1 -1 -1 -1 -1
 NAtoms=     37 NQM=       37 NQMF=       0 NMMI=      0 NMMIF=      0
                NMic=       0 NMicF=      0.
                    Isotopes and Nuclear Properties:
 (Nuclear quadrupole moments (NQMom) in fm**2, nuclear magnetic moments (NMagM)
  in nuclear magnetons)

  Atom         1           2           3           4           5           6           7           8           9          10
 IAtWgt=          16          16          12           1          16          16          12           1          16          16
 AtmWgt=  15.9949146  15.9949146  12.0000000   1.0078250  15.9949146  15.9949146  12.0000000   1.0078250  15.9949146  15.9949146
 NucSpn=           0           0           0           1           0           0           0           1           0           0
 AtZEff=   5.6000000   5.6000000   3.6000000   1.0000000   5.6000000   5.6000000   3.6000000   1.0000000   5.6000000   5.6000000
 NQMom=    0.0000000   0.0000000   0.0000000   0.0000000   0.0000000   0.0000000   0.0000000   0.0000000   0.0000000   0.0000000
 NMagM=    0.0000000   0.0000000   0.0000000   2.7928460   0.0000000   0.0000000   0.0000000   2.7928460   0.0000000   0.0000000
 AtZNuc=   8.0000000   8.0000000   6.0000000   1.0000000   8.0000000   8.0000000   6.0000000   1.0000000   8.0000000   8.0000000

  Atom        11          12          13          14          15          16          17          18          19          20
 IAtWgt=          16          12           1          16          16          12           1          56          16          56
 AtmWgt=  15.9949146  12.0000000   1.0078250  15.9949146  15.9949146  12.0000000   1.0078250  55.9349393  15.9949146  55.9349393
 NucSpn=           0           0           1           0           0           0           1           0           0           0
 AtZEff=   5.6000000   3.6000000   1.0000000   5.6000000   5.6000000   3.6000000   1.0000000  25.2200000   5.6000000  25.2200000
 NQMom=    0.0000000   0.0000000   0.0000000   0.0000000   0.0000000   0.0000000   0.0000000   0.0000000   0.0000000   0.0000000
 NMagM=    0.0000000   0.0000000   2.7928460   0.0000000   0.0000000   0.0000000   2.7928460   0.0000000   0.0000000   0.0000000
 AtZNuc=   8.0000000   6.0000000   1.0000000   8.0000000   8.0000000   6.0000000   1.0000000  26.0000000   8.0000000  26.0000000

  Atom        21          22          23          24          25          26          27          28          29          30
 IAtWgt=          16          16          56          16          12           1          12           1          14          14
 AtmWgt=  15.9949146  15.9949146  55.9349393  15.9949146  12.0000000   1.0078250  12.0000000   1.0078250  14.0030740  14.0030740
 NucSpn=           0           0           0           0           0           1           0           1           2           2
 AtZEff=   5.6000000   5.6000000  25.2200000   5.6000000   3.6000000   1.0000000   3.6000000   1.0000000   4.5500000   4.5500000
 NQMom=    0.0000000   0.0000000   0.0000000   0.0000000   0.0000000   0.0000000   0.0000000   0.0000000   2.0440000   2.0440000
 NMagM=    0.0000000   0.0000000   0.0000000   0.0000000   0.0000000   2.7928460   0.0000000   2.7928460   0.4037610   0.4037610
 AtZNuc=   8.0000000   8.0000000  26.0000000   8.0000000   6.0000000   1.0000000   6.0000000   1.0000000   7.0000000   7.0000000

  Atom        31          32          33          34          35          36          37
 IAtWgt=          16          16           1           1          16           1           1
 AtmWgt=  15.9949146  15.9949146   1.0078250   1.0078250  15.9949146   1.0078250   1.0078250
 NucSpn=           0           0           1           1           0           1           1
 AtZEff=   5.6000000   5.6000000   1.0000000   1.0000000   5.6000000   1.0000000   1.0000000
 NQMom=    0.0000000   0.0000000   0.0000000   0.0000000   0.0000000   0.0000000   0.0000000
 NMagM=    0.0000000   0.0000000   2.7928460   2.7928460   0.0000000   2.7928460   2.7928460
 AtZNuc=   8.0000000   8.0000000   1.0000000   1.0000000   8.0000000   1.0000000   1.0000000
 Leave Link  101 at Sat Feb  4 21:45:58 2023, MaxMem= 14763950080 cpu:               0.1 elap:               1.4
 (Enter /software/commercial/gaussian/g16/AVX2/g16/l103.exe)

 GradGradGradGradGradGradGradGradGradGradGradGradGradGradGradGradGradGrad
 Berny optimization.
 Initialization pass.
 Trust Radius=3.00D-01 FncErr=1.00D-07 GrdErr=1.00D-07 EigMax=2.50D+02 EigMin=1.00D-04
 Number of steps in this run=      2 maximum allowed number of steps=      2.
 GradGradGradGradGradGradGradGradGradGradGradGradGradGradGradGradGradGrad

 Leave Link  103 at Sat Feb  4 21:45:59 2023, MaxMem= 14763950080 cpu:               0.1 elap:               0.6
 (Enter /software/commercial/gaussian/g16/AVX2/g16/l202.exe)
                          Input orientation:                          
 ---------------------------------------------------------------------
 Center     Atomic      Atomic             Coordinates (Angstroms)
 Number     Number       Type             X           Y           Z
 ---------------------------------------------------------------------
      1          8           0        1.654104   -2.108060   -1.587075
      2          8           0       -0.526169   -2.513544   -1.174096
      3          6           0        0.537150   -2.671063   -1.786764
      4          1           0        0.527499   -3.401721   -2.615711
      5          8           0        1.866797    2.236070    1.180184
      6          8           0        2.946151    0.272945    1.382121
      7          6           0        2.738628    1.475550    1.659291
      8          1           0        3.410980    1.918495    2.414972
      9          8           0       -2.106049   -0.130305   -1.490690
     10          8           0        2.809527    0.486539   -1.438213
     11          8           0        1.382451    2.213978   -1.624194
     12          6           0        2.384885    1.541889   -1.958105
     13          1           0        2.965823    1.931570   -2.813410
     14          8           0       -0.584441   -2.098590    1.776050
     15          8           0        1.609912   -2.281859    1.281187
     16          6           0        0.576307   -2.489457    1.976702
     17          1           0        0.733871   -3.106474    2.878451
     18         26           0       -1.396192   -1.141067    0.150473
     19          8           0       -2.203912    0.274962    1.466602
     20         26           0        0.148470    1.859447    0.029179
     21          8           0       -0.904179    2.103791    1.700791
     22          8           0       -1.425527    1.996524   -1.166060
     23         26           0        1.981819   -0.843969   -0.028618
     24          8           0        0.287423   -0.023408    0.040073
     25          6           0       -1.845344    1.324054    2.022954
     26          1           0       -2.420176    1.633154    2.913996
     27          6           0       -2.066457    1.081653   -1.755758
     28          1           0       -2.672760    1.412663   -2.616461
     29          7           0       -5.515820   -0.072341    0.495911
     30          7           0       -4.965039    0.637726   -0.129774
     31          8           0       -2.744409   -2.031597    0.238135
     32          8           0        0.240212    4.067771   -0.006181
     33          1           0        0.710570    4.243420   -0.831888
     34          1           0        0.879619    4.249023    0.695781
     35          8           0        3.996325   -1.719637   -0.363906
     36          1           0        4.470077   -0.986614   -0.778107
     37          1           0        3.775744   -2.312159   -1.097030
 ---------------------------------------------------------------------
                    Distance matrix (angstroms):
                    1          2          3          4          5
     1  O    0.000000
     2  O    2.255783   0.000000
     3  C    1.266662   1.237263   0.000000
     4  H    2.000223   1.994324   1.105037   0.000000
     5  O    5.155039   5.816163   5.886484   6.927282   0.000000
     6  O    4.019290   5.133787   4.950990   5.944384   2.249366
     7  C    4.955537   5.882164   5.823762   6.852190   1.252207
     8  H    5.942738   6.930045   6.854015   7.869367   2.002512
     9  O    4.249653   2.876818   3.678262   4.347805   5.340113
    10  O    2.844135   4.494121   3.905846   4.659691   3.287188
    11  O    4.330726   5.118094   4.960302   5.766292   2.845982
    12  C    3.740833   5.053261   4.603526   5.321806   3.255635
    13  H    4.420759   5.885609   5.304403   5.867581   4.153237
    14  O    4.040022   2.979756   3.778800   4.714035   5.015267
    15  O    2.873863   3.262658   3.273320   4.196609   4.526354
    16  C    3.742675   3.338197   3.768048   4.682400   4.962903
    17  H    4.667395   4.285137   4.689617   5.505958   5.719301
    18  Fe   3.641215   2.096453   3.135536   4.057452   4.807541
    19  O    5.466994   4.190928   5.174638   6.135461   4.527544
    20  Fe   4.540960   4.585418   4.896350   5.900762   2.102214
    21  O    5.924066   5.452307   6.086025   7.140907   2.822558
    22  O    5.148688   4.598872   5.101348   5.920883   4.049894
    23  Fe   2.033252   3.223291   2.918291   3.917933   3.310751
    24  O    2.976776   2.887372   3.226418   4.303931   2.983206
    25  C    6.087516   5.166093   6.012586   7.034241   3.914336
    26  H    7.131345   6.123306   7.026323   8.038434   4.663449
    27  C    4.903600   3.954271   4.567561   5.250597   5.042114
    28  H    5.672466   4.701422   5.260108   5.780999   5.974955
    29  N    7.738913   5.800432   6.971542   7.568927   7.765309
    30  N    7.312736   5.542985   6.630821   7.257065   7.137554
    31  O    4.762788   2.673436   3.908678   4.552698   6.353240
    32  O    6.529870   6.727933   6.976428   7.917418   2.721832
    33  H    6.465435   6.877732   6.982259   7.852625   3.068346
    34  H    6.798806   7.155767   7.359886   8.344092   2.293719
    35  O    2.670770   4.662579   3.859485   4.464615   4.750444
    36  H    3.137161   5.239350   4.395756   4.975284   4.582320
    37  H    2.187043   4.307313   3.330621   3.747617   5.432878
                    6          7          8          9         10
     6  O    0.000000
     7  C    1.251459   0.000000
     8  H    1.997670   1.104224   0.000000
     9  O    5.825838   5.997670   7.063242   0.000000
    10  O    2.831708   3.252338   4.154429   4.954406   0.000000
    11  O    3.905214   3.628466   4.529581   4.205131   2.248373
    12  C    3.616953   3.635256   4.507605   4.814893   1.250749
    13  H    4.511530   4.501625   5.247315   5.632478   2.000927
    14  O    4.271351   4.881689   5.701629   4.106218   5.341666
    15  O    2.884917   3.941457   4.708746   5.110857   4.061803
    16  C    3.687892   4.527434   5.259039   4.978297   5.050294
    17  H    4.307396   5.147848   5.712446   6.001010   5.987627
    18  Fe   4.729939   5.120541   6.131702   2.054009   4.781327
    19  O    5.150757   5.089915   5.926855   2.986535   5.798042
    20  Fe   3.489192   3.084406   4.042210   3.369269   3.334568
    21  O    4.275347   3.696816   4.377783   4.076914   5.124496
    22  O    5.345608   5.059072   6.018445   2.256523   4.504421
    23  Fe   2.041474   2.966810   3.955356   4.399731   2.107679
    24  O    2.992950   3.298052   4.378097   2.843127   2.967555
    25  C    4.947113   4.600869   5.304335   3.811670   5.860796
    26  H    5.744065   5.311533   5.859422   4.754968   6.899728
    27  C    5.968796   5.908176   6.935243   1.241237   4.922419
    28  H    6.989977   6.897037   7.910946   1.992303   5.683436
    29  N    8.515254   8.478521   9.345264   3.946704   8.565312
    30  N    8.062619   7.952935   8.847247   3.258187   7.885350
    31  O    6.245166   6.662091   7.630901   2.647877   6.324346
    32  O    4.863147   3.966798   4.531570   5.033146   4.634363
    33  H    5.065998   4.240294   4.820745   5.243742   4.345964
    34  H    4.533301   3.475114   3.846396   5.733532   4.736536
    35  O    2.849886   3.985517   4.615278   6.405824   2.725772
    36  H    2.928381   3.873122   4.444895   6.669818   2.315889
    37  H    3.676571   4.797880   5.510503   6.285773   2.980384
                   11         12         13         14         15
    11  O    0.000000
    12  C    1.252227   0.000000
    13  H    2.000264   1.104938   0.000000
    14  O    5.833401   6.001158   7.064680   0.000000
    15  O    5.357755   5.070962   6.029694   2.256914   0.000000
    16  C    5.978179   5.916537   6.942654   1.241118   1.263003
    17  H    7.000120   6.908357   7.922170   1.992251   1.999672
    18  Fe   4.703895   5.093220   6.103513   2.053848   3.408311
    19  O    5.116132   5.864365   6.912960   2.890016   4.595320
    20  Fe   2.093334   3.008603   4.002874   4.388025   4.566591
    21  O    4.036873   4.951887   5.948494   4.215199   5.072539
    22  O    2.853404   3.918324   4.690622   5.112083   5.788564
    23  Fe   3.500877   3.094786   4.053017   3.378844   1.980261
    24  O    2.995792   3.292751   4.374715   2.842559   2.896540
    25  C    4.950992   5.813013   6.848856   3.655862   5.048923
    26  H    5.949160   6.843560   7.867733   4.311700   5.851069
    27  C    3.632415   4.479643   5.211989   4.978351   5.835404
    28  H    4.251051   5.101951   5.665834   5.998677   6.868947
    29  N    7.570221   8.429060   9.322313   5.482968   7.501645
    30  N    6.708837   7.627692   8.471984   5.505382   7.331082
    31  O    6.206783   6.625929   7.591138   2.652382   4.484495
    32  O    2.712790   3.845739   4.457898   6.471507   6.622024
    33  H    2.279870   3.371937   3.789096   6.978501   6.917599
    34  H    3.126745   4.078910   4.694387   6.603230   6.597610
    35  O    4.888147   3.971871   4.515895   5.070151   2.952523
    36  H    4.526929   3.483353   3.862775   5.771339   3.754850
    37  H    5.147006   4.186840   4.648781   5.226032   3.216778
                   16         17         18         19         20
    16  C    0.000000
    17  H    1.103942   0.000000
    18  Fe   3.007328   3.980183   0.000000
    19  O    3.953712   4.696595   2.095172   0.000000
    20  Fe   4.784229   5.755120   3.376947   3.179697   0.000000
    21  O    4.833828   5.587214   3.629692   2.255830   1.990492
    22  O    5.831666   6.860150   3.402734   3.240458   1.981125
    23  Fe   2.950322   3.889390   3.395776   4.583452   3.266950
    24  O    3.148870   4.214380   2.023835   2.886306   1.888006
    25  C    4.517676   5.197481   3.128058   1.240441   2.870031
    26  H    5.182022   5.693273   4.047457   1.996599   3.869279
    27  C    5.802438   6.845300   3.003906   3.324642   2.949044
    28  H    6.846906   7.888079   3.975812   4.264456   3.893374
    29  N    6.719316   7.344460   4.269993   3.468658   6.002817
    30  N    6.702464   7.452920   3.997413   3.209958   5.259832
    31  O    3.776163   4.497228   1.618153   2.668611   4.853105
    32  O    6.858719   7.748199   5.462083   4.746392   2.210512
    33  H    7.296426   8.233353   5.864825   5.433776   2.596290
    34  H    6.865848   7.673893   5.876202   5.088761   2.586313
    35  O    4.215162   4.804144   5.447803   6.765510   5.269757
    36  H    5.000895   5.641228   5.941315   7.153490   5.237180
    37  H    4.440232   5.068370   5.447627   7.001549   5.641609
                   21         22         23         24         25
    21  O    0.000000
    22  O    2.915844   0.000000
    23  Fe   4.473156   4.579539   0.000000
    24  O    2.950064   2.910169   1.883882   0.000000
    25  C    1.263950   3.286073   4.853498   3.208765   0.000000
    26  H    1.997903   4.215238   5.845740   4.281908   1.104505
    27  C    3.787266   1.263140   4.804119   3.160209   3.792929
    28  H    4.716376   2.000036   5.783979   4.228730   4.713453
    29  N    5.239706   4.875740   7.555469   5.821324   4.213570
    30  N    4.689445   3.930441   7.103836   5.296632   3.851984
    31  O    4.756811   4.465084   4.880456   3.641986   3.905675
    32  O    2.842640   2.900013   5.211419   4.091713   3.999364
    33  H    3.687802   3.118192   5.304982   4.375521   4.817210
    34  H    2.965468   3.722084   5.261004   4.362834   4.212156
    35  O    6.549542   6.621917   2.222037   4.098333   7.006158
    36  H    6.676688   6.618744   2.602597   4.369413   7.284893
    37  H    7.016416   6.754460   2.552500   4.324322   7.385998
                   26         27         28         29         30
    26  H    0.000000
    27  C    4.715493   0.000000
    28  H    5.540611   1.103622   0.000000
    29  N    4.282389   4.277828   4.469349   0.000000
    30  N    4.090445   3.353009   3.469681   1.095005   0.000000
    31  O    4.549259   3.758664   4.474012   3.403799   3.491681
    32  O    4.640308   4.159164   4.727428   7.108061   6.234992
    33  H    5.535947   4.308385   4.758656   7.691344   6.760660
    34  H    4.759401   4.972086   5.624525   7.721125   6.919757
    35  O    7.947159   6.822154   7.704673   9.691943   9.269197
    36  H    8.244416   6.925301   7.756042  10.108271   9.595844
    37  H    8.369185   6.788460   7.600406   9.689551   9.275704
                   31         32         33         34         35
    31  O    0.000000
    32  O    6.794847   0.000000
    33  H    7.242767   0.966376   0.000000
    34  H    7.265619   0.966666   1.537004   0.000000
    35  O    6.774752   6.908722   6.824458   6.816282   0.000000
    36  H    7.360268   6.635844   6.441276   6.517333   0.966088
    37  H    6.661364   7.375191   7.241630   7.392620   0.968096
                   36         37
    36  H    0.000000
    37  H    1.529994   0.000000
 Symmetry turned off by external request.
 Stoichiometry    C6H10Fe3N2O16(15)
 Framework group  C1[X(C6H10Fe3N2O16)]
 Deg. of freedom   105
 Full point group                 C1      NOp   1
 Rotational constants (GHZ):           0.2157378           0.1599964           0.1235048
 Leave Link  202 at Sat Feb  4 21:46:01 2023, MaxMem= 14763950080 cpu:               0.0 elap:               0.7
 (Enter /software/commercial/gaussian/g16/AVX2/g16/l301.exe)
 General basis read from cards:  (5D, 7F)
 Centers:       4      8     13     17     26     28     33     34     36     37
 S 3 1.00
     Exponent=  3.4061341000D+01 Coefficients=  6.0251978000D-03
     Exponent=  5.1235746000D+00 Coefficients=  4.5021094000D-02
     Exponent=  1.1646626000D+00 Coefficients=  2.0189726000D-01
 S 1 1.00
     Exponent=  3.2723041000D-01 Coefficients=  1.0000000000D+00
 S 1 1.00
     Exponent=  1.0307241000D-01 Coefficients=  1.0000000000D+00
 P 1 1.00
     Exponent=  8.0000000000D-01 Coefficients=  1.0000000000D+00
 ****
 Centers:       1      2      5      6      9     10     11     14     15     19
 Centers:      21     22     24     31     32     35
 S 6 1.00
     Exponent=  2.7032382631D+04 Coefficients=  2.1726302465D-04
     Exponent=  4.0523871392D+03 Coefficients=  1.6838662199D-03
     Exponent=  9.2232722710D+02 Coefficients=  8.7395616265D-03
     Exponent=  2.6124070989D+02 Coefficients=  3.5239968808D-02
     Exponent=  8.5354641351D+01 Coefficients=  1.1153519115D-01
     Exponent=  3.1035035245D+01 Coefficients=  2.5588953961D-01
 S 2 1.00
     Exponent=  1.2260860728D+01 Coefficients=  3.9768730901D-01
     Exponent=  4.9987076005D+00 Coefficients=  2.4627849430D-01
 S 1 1.00
     Exponent=  1.1703108158D+00 Coefficients=  1.0000000000D+00
 S 1 1.00
     Exponent=  4.6474740994D-01 Coefficients=  1.0000000000D+00
 S 1 1.00
     Exponent=  1.8504536357D-01 Coefficients=  1.0000000000D+00
 P 4 1.00
     Exponent=  6.3274954801D+01 Coefficients=  6.0685103418D-03
     Exponent=  1.4627049379D+01 Coefficients=  4.1912575824D-02
     Exponent=  4.4501223456D+00 Coefficients=  1.6153841088D-01
     Exponent=  1.5275799647D+00 Coefficients=  3.5706951311D-01
 P 1 1.00
     Exponent=  5.2935117943D-01 Coefficients=  4.4794207502D-01
 P 1 1.00
     Exponent=  1.7478421270D-01 Coefficients=  2.4446069663D-01
 D 1 1.00
     Exponent=  2.3140000000D+00 Coefficients=  1.0000000000D+00
 D 1 1.00
     Exponent=  6.4500000000D-01 Coefficients=  1.0000000000D+00
 F 1 1.00
     Exponent=  1.4280000000D+00 Coefficients=  1.0000000000D+00
 ****
 Centers:       3      7     12     16     25     27
 S 6 1.00
     Exponent=  1.3575349682D+04 Coefficients=  2.2245814352D-04
     Exponent=  2.0352333680D+03 Coefficients=  1.7232738252D-03
     Exponent=  4.6322562359D+02 Coefficients=  8.9255715314D-03
     Exponent=  1.3120019598D+02 Coefficients=  3.5727984502D-02
     Exponent=  4.2853015891D+01 Coefficients=  1.1076259931D-01
     Exponent=  1.5584185766D+01 Coefficients=  2.4295627626D-01
 S 2 1.00
     Exponent=  6.2067138508D+00 Coefficients=  4.1440263448D-01
     Exponent=  2.5764896527D+00 Coefficients=  2.3744968655D-01
 S 1 1.00
     Exponent=  5.7696339419D-01 Coefficients=  1.0000000000D+00
 S 1 1.00
     Exponent=  2.2972831358D-01 Coefficients=  1.0000000000D+00
 S 1 1.00
     Exponent=  9.5164440028D-02 Coefficients=  1.0000000000D+00
 P 4 1.00
     Exponent=  3.4697232244D+01 Coefficients=  5.3333657805D-03
     Exponent=  7.9582622826D+00 Coefficients=  3.5864109092D-02
     Exponent=  2.3780826883D+00 Coefficients=  1.4215873329D-01
     Exponent=  8.1433208183D-01 Coefficients=  3.4270471845D-01
 P 1 1.00
     Exponent=  2.8887547253D-01 Coefficients=  4.6445822433D-01
 P 1 1.00
     Exponent=  1.0056823671D-01 Coefficients=  2.4955789874D-01
 D 1 1.00
     Exponent=  1.0970000000D+00 Coefficients=  1.0000000000D+00
 D 1 1.00
     Exponent=  3.1800000000D-01 Coefficients=  1.0000000000D+00
 F 1 1.00
     Exponent=  7.6100000000D-01 Coefficients=  1.0000000000D+00
 ****
 Centers:      18     20     23
 S 8 1.00
     Exponent=  3.0078484637D+05 Coefficients=  2.2806273096D-04
     Exponent=  4.5088970557D+04 Coefficients=  1.7681788761D-03
     Exponent=  1.0262516317D+04 Coefficients=  9.1927083490D-03
     Exponent=  2.9052897293D+03 Coefficients=  3.7355495807D-02
     Exponent=  9.4611487137D+02 Coefficients=  1.2151108426D-01
     Exponent=  3.3987832894D+02 Coefficients=  2.8818881468D-01
     Exponent=  1.3194425588D+02 Coefficients=  4.1126612677D-01
     Exponent=  5.2111494077D+01 Coefficients=  2.1518583573D-01
 S 4 1.00
     Exponent=  3.2948839267D+02 Coefficients= -2.4745216477D-02
     Exponent=  1.0192332739D+02 Coefficients= -1.1683089050D-01
     Exponent=  1.6240462745D+01 Coefficients=  5.5293621136D-01
     Exponent=  6.8840675801D+00 Coefficients=  5.3601640182D-01
 S 2 1.00
     Exponent=  1.0470693782D+01 Coefficients= -2.2912708577D-01
     Exponent=  1.7360039648D+00 Coefficients=  7.1159319984D-01
 S 1 1.00
     Exponent=  7.2577288979D-01 Coefficients=  1.0000000000D+00
 S 1 1.00
     Exponent=  1.1595528203D-01 Coefficients=  1.0000000000D+00
 S 1 1.00
     Exponent=  4.1968227746D-02 Coefficients=  1.0000000000D+00
 P 6 1.00
     Exponent=  1.5853959970D+03 Coefficients=  2.3793960179D-03
     Exponent=  3.7538006499D+02 Coefficients=  1.9253154755D-02
     Exponent=  1.2031816501D+02 Coefficients=  9.0021836536D-02
     Exponent=  4.4788749031D+01 Coefficients=  2.5798172356D-01
     Exponent=  1.7829278584D+01 Coefficients=  4.1492649744D-01
     Exponent=  7.2247153786D+00 Coefficients=  2.4207474784D-01
 P 3 1.00
     Exponent=  2.8143219756D+01 Coefficients= -2.9041755152D-02
     Exponent=  3.8743241412D+00 Coefficients=  5.5312260343D-01
     Exponent=  1.5410752281D+00 Coefficients=  9.6771136842D-01
 P 1 1.00
     Exponent=  5.8285615250D-01 Coefficients=  1.0000000000D+00
 P 1 1.00
     Exponent=  1.3491500000D-01 Coefficients=  1.0000000000D+00
 D 4 1.00
     Exponent=  6.1996675034D+01 Coefficients=  1.1971972255D-02
     Exponent=  1.7873732552D+01 Coefficients=  7.3210135410D-02
     Exponent=  6.2744782934D+00 Coefficients=  2.3103094314D-01
     Exponent=  2.3552337175D+00 Coefficients=  3.9910706494D-01
 D 1 1.00
     Exponent=  8.5432239901D-01 Coefficients=  4.1391589765D-01
 D 1 1.00
     Exponent=  2.7869254413D-01 Coefficients=  2.1909269782D-01
 D 1 1.00
     Exponent=  9.1000000000D-02 Coefficients=  1.0000000000D+00
 F 1 1.00
     Exponent=  1.5980000000D+00 Coefficients=  1.0000000000D+00
 ****
 Centers:      29     30
 S 6 1.00
     Exponent=  1.9730800647D+04 Coefficients=  2.1887984991D-04
     Exponent=  2.9578958745D+03 Coefficients=  1.6960708803D-03
     Exponent=  6.7322133595D+02 Coefficients=  8.7954603538D-03
     Exponent=  1.9068249494D+02 Coefficients=  3.5359382605D-02
     Exponent=  6.2295441898D+01 Coefficients=  1.1095789217D-01
     Exponent=  2.2654161182D+01 Coefficients=  2.4982972552D-01
 S 2 1.00
     Exponent=  8.9791477428D+00 Coefficients=  4.0623896148D-01
     Exponent=  3.6863002370D+00 Coefficients=  2.4338217176D-01
 S 1 1.00
     Exponent=  8.4660076805D-01 Coefficients=  1.0000000000D+00
 S 1 1.00
     Exponent=  3.3647133771D-01 Coefficients=  1.0000000000D+00
 S 1 1.00
     Exponent=  1.3647653675D-01 Coefficients=  1.0000000000D+00
 P 4 1.00
     Exponent=  4.9200380510D+01 Coefficients=  5.5552416751D-03
     Exponent=  1.1346790537D+01 Coefficients=  3.8052379723D-02
     Exponent=  3.4273972411D+00 Coefficients=  1.4953671029D-01
     Exponent=  1.1785525134D+00 Coefficients=  3.4949305230D-01
 P 1 1.00
     Exponent=  4.1642204972D-01 Coefficients=  4.5843153697D-01
 P 1 1.00
     Exponent=  1.4260826011D-01 Coefficients=  2.4428771672D-01
 D 1 1.00
     Exponent=  1.6540000000D+00 Coefficients=  1.0000000000D+00
 D 1 1.00
     Exponent=  4.6900000000D-01 Coefficients=  1.0000000000D+00
 F 1 1.00
     Exponent=  1.0930000000D+00 Coefficients=  1.0000000000D+00
 ****
 Ernie: Thresh=  0.10000D-02 Tol=  0.10000D-05 Strict=F.
   939 basis functions,  1610 primitive gaussians,  1080 cartesian basis functions
   140 alpha electrons      126 beta electrons
       nuclear repulsion energy      5062.9469939251 Hartrees.
 IExCor= 4134 DFT=T Ex+Corr=M06L ExCW=0 ScaHFX=  0.000000
 ScaDFX=  1.000000  1.000000  1.000000  1.000000 ScalE2=  1.000000  1.000000
 IRadAn=      5 IRanWt=     -1 IRanGd=            0 ICorTp=0 IEmpDi=  4
 NAtoms=   37 NActive=   37 NUniq=   37 SFac= 1.00D+00 NAtFMM=   60 NAOKFM=F Big=F
 Integral buffers will be    131072 words long.
 Raffenetti 2 integral format.
 Two-electron integral symmetry is turned off.
 Leave Link  301 at Sat Feb  4 21:46:03 2023, MaxMem= 14763950080 cpu:               0.1 elap:               1.5
 (Enter /software/commercial/gaussian/g16/AVX2/g16/l302.exe)
 NPDir=0 NMtPBC=     1 NCelOv=     1 NCel=       1 NClECP=     1 NCelD=      1
         NCelK=      1 NCelE2=     1 NClLst=     1 CellRange=     0.0.
 One-electron integrals computed using PRISM.
 NBasis=   939 RedAO= T EigKep=  2.02D-04  NBF=   939
 NBsUse=   939 1.00D-06 EigRej= -1.00D+00 NBFU=   939
 Precomputing XC quadrature grid using
 IXCGrd= 4 IRadAn=           5 IRanWt=          -1 IRanGd=           0 AccXCQ= 0.00D+00.
 Generated NRdTot=       0 NPtTot=           0 NUsed=           0 NTot=          32
 NSgBfM=  1060  1060  1060  1060  1060 MxSgAt=    37 MxSgA2=    37.
 Leave Link  302 at Sat Feb  4 21:46:09 2023, MaxMem= 14763950080 cpu:               3.3 elap:               3.8
 (Enter /software/commercial/gaussian/g16/AVX2/g16/l303.exe)
 DipDrv:  MaxL=1.
 Leave Link  303 at Sat Feb  4 21:46:11 2023, MaxMem= 14763950080 cpu:               0.2 elap:               1.0
 (Enter /software/commercial/gaussian/g16/AVX2/g16/l401.exe)
 Initial guess from the checkpoint file:  "/scratch1/svicchi/G09-93351.pbs02/02-freq/FeFeFe-B-2xH2O-freq.chk"
 B after Tr=     0.000000    0.000000    0.000000
         Rot=    1.000000    0.000000    0.000000    0.000000 Ang=   0.00 deg.
 Guess basis will be translated and rotated to current coordinates.
 JPrj=2 DoOrth=T DoCkMO=T.
 Initial guess <Sx>= 0.0000 <Sy>= 0.0000 <Sz>= 7.0000 <S**2>=56.0864 S= 7.0058
 Leave Link  401 at Sat Feb  4 21:46:21 2023, MaxMem= 14763950080 cpu:               3.3 elap:               9.8
 (Enter /software/commercial/gaussian/g16/AVX2/g16/l502.exe)
 Two-electron integral symmetry not used.
 UHF open shell SCF:
 Using DIIS extrapolation, IDIIS=  1040.
 NGot= 14763950080 LenX= 14761603088 LenY= 14760435608
 Requested convergence on RMS density matrix=1.00D-08 within 150 cycles.
 Requested convergence on MAX density matrix=1.00D-06.
 Requested convergence on             energy=1.00D-06.
 No special actions if energy rises.
 Fock matrices will be formed incrementally for  20 cycles.

 Cycle   1  Pass 1  IDiag  1:
 FoFJK:  IHMeth= 1 ICntrl=     500 DoSepK=F KAlg= 0 I1Cent=           0 FoldK=F
 IRaf= 760000000 NMat=       1 IRICut=       1 DoRegI=T DoRafI=F ISym2E= 0 IDoP0=0 IntGTp=1.
 FoFCou: FMM=F IPFlag=           0 FMFlag=      100000 FMFlg1=           0
         NFxFlg=           0 DoJE=T BraDBF=F KetDBF=F FulRan=T
         wScrn=  0.000000 ICntrl=       500 IOpCl=  0 I1Cent=           0 NGrid=           0
         NMat0=    1 NMatS0=      1 NMatT0=    0 NMatD0=    1 NMtDS0=    0 NMtDT0=    0
 Symmetry not used in FoFCou.
 E= -5339.75985008910    
 DIIS: error= 6.46D-07 at cycle   1 NSaved=   1.
 NSaved= 1 IEnMin= 1 EnMin= -5339.75985008910     IErMin= 1 ErrMin= 6.46D-07
 ErrMax= 6.46D-07  0.00D+00 EMaxC= 1.00D-01 BMatC= 2.54D-10 BMatP= 2.54D-10
 IDIUse=1 WtCom= 1.00D+00 WtEn= 0.00D+00
 Coeff-Com:  0.100D+01
 Coeff:      0.100D+01
 Gap=     0.079 Goal=   None    Shift=    0.000
 Gap=     0.068 Goal=   None    Shift=    0.000
 RMSDP=1.84D-08 MaxDP=1.96D-06              OVMax= 6.35D-06

 Cycle   2  Pass 1  IDiag  1:
 RMSU=  1.84D-08    CP:  1.00D+00
 E= -5339.75985008833     Delta-E=        0.000000000768 Rises=F Damp=F
 DIIS: error= 2.09D-06 at cycle   2 NSaved=   2.
 NSaved= 2 IEnMin= 1 EnMin= -5339.75985008910     IErMin= 1 ErrMin= 6.46D-07
 ErrMax= 2.09D-06  0.00D+00 EMaxC= 1.00D-01 BMatC= 3.59D-09 BMatP= 2.54D-10
 IDIUse=1 WtCom= 1.00D+00 WtEn= 0.00D+00
 Coeff-Com:  0.800D+00 0.200D+00
 Coeff:      0.800D+00 0.200D+00
 Gap=     0.079 Goal=   None    Shift=    0.000
 Gap=     0.068 Goal=   None    Shift=    0.000
 RMSDP=1.74D-08 MaxDP=3.58D-06 DE= 7.68D-10 OVMax= 1.03D-05

 Cycle   3  Pass 1  IDiag  1:
 RMSU=  8.56D-09    CP:  1.00D+00  1.73D-01
 E= -5339.75985008899     Delta-E=       -0.000000000662 Rises=F Damp=F
 DIIS: error= 1.48D-06 at cycle   3 NSaved=   3.
 NSaved= 3 IEnMin= 1 EnMin= -5339.75985008910     IErMin= 1 ErrMin= 6.46D-07
 ErrMax= 1.48D-06  0.00D+00 EMaxC= 1.00D-01 BMatC= 1.51D-09 BMatP= 2.54D-10
 IDIUse=1 WtCom= 1.00D+00 WtEn= 0.00D+00
 Coeff-Com:  0.671D+00 0.200D+00 0.130D+00
 Coeff:      0.671D+00 0.200D+00 0.130D+00
 Gap=     0.079 Goal=   None    Shift=    0.000
 Gap=     0.068 Goal=   None    Shift=    0.000
 RMSDP=7.68D-09 MaxDP=1.92D-06 DE=-6.62D-10 OVMax= 5.34D-06

 Cycle   4  Pass 1  IDiag  1:
 RMSU=  1.72D-09    CP:  1.00D+00  2.20D-01  1.32D-01
 E= -5339.75985008925     Delta-E=       -0.000000000255 Rises=F Damp=F
 DIIS: error= 8.15D-08 at cycle   4 NSaved=   4.
 NSaved= 4 IEnMin= 4 EnMin= -5339.75985008925     IErMin= 4 ErrMin= 8.15D-08
 ErrMax= 8.15D-08  0.00D+00 EMaxC= 1.00D-01 BMatC= 1.93D-11 BMatP= 2.54D-10
 IDIUse=1 WtCom= 1.00D+00 WtEn= 0.00D+00
 Coeff-Com:  0.514D+00 0.155D+00 0.109D+00 0.222D+00
 Coeff:      0.514D+00 0.155D+00 0.109D+00 0.222D+00
 Gap=     0.079 Goal=   None    Shift=    0.000
 Gap=     0.068 Goal=   None    Shift=    0.000
 RMSDP=1.50D-09 MaxDP=2.17D-07 DE=-2.55D-10 OVMax= 1.03D-06

 SCF Done:  E(UM06L) =  -5339.75985009     A.U. after    4 cycles
            NFock=  4  Conv=0.15D-08     -V/T= 2.0017
 <Sx>= 0.0000 <Sy>= 0.0000 <Sz>= 7.0000 <S**2>=56.0864 S= 7.0058
 <L.S>=  0.00000000000    
 KE= 5.330654712453D+03 PE=-2.279805088710D+04 EE= 7.064689330635D+03
 Annihilation of the first spin contaminant:
 S**2 before annihilation    56.0864,   after    56.0005
 Leave Link  502 at Sat Feb  4 22:00:13 2023, MaxMem= 14763950080 cpu:            1605.5 elap:             830.6
 (Enter /software/commercial/gaussian/g16/AVX2/g16/l508.exe)
 QCSCF skips out because SCF is already converged.
 Leave Link  508 at Sat Feb  4 22:00:15 2023, MaxMem= 14763950080 cpu:               0.0 elap:               1.0
 (Enter /software/commercial/gaussian/g16/AVX2/g16/l801.exe)
 DoSCS=F DFT=T ScalE2(SS,OS)=  1.000000  1.000000
 Range of M.O.s used for correlation:     1   939
 NBasis=   939 NAE=   140 NBE=   126 NFC=     0 NFV=     0
 NROrb=    939 NOA=   140 NOB=   126 NVA=   799 NVB=   813

 **** Warning!!: The largest alpha MO coefficient is  0.26461643D+02


 **** Warning!!: The smallest alpha delta epsilon is  0.79461165D-01


 **** Warning!!: The largest beta MO coefficient is  0.27982440D+02


 **** Warning!!: The smallest beta delta epsilon is  0.68161757D-01

 Leave Link  801 at Sat Feb  4 22:00:17 2023, MaxMem= 14763950080 cpu:               0.1 elap:               1.3
 (Enter /software/commercial/gaussian/g16/AVX2/g16/l1002.exe)
 Minotr:  UHF open shell wavefunction.
          Direct CPHF calculation.
          Differentiating once with respect to electric field.
                with respect to dipole field.
          Electric field/nuclear overlap derivatives assumed to be zero.
          Requested convergence is 1.0D-08 RMS, and 1.0D-07 maximum.
          Secondary convergence is 1.0D-12 RMS, and 1.0D-12 maximum.
          NewPWx=F KeepS1=T KeepF1=T KeepIn=T MapXYZ=F SortEE=F KeepMc=T.
        11391 words used for storage of precomputed grid.
 Two-electron integral symmetry not used.
          MDV=   14763950080 using IRadAn=       1.
          Solving linear equations simultaneously, MaxMat=     384.
          There are     3 degrees of freedom in the 1st order CPHF.  IDoFFX=0 NUNeed=     3.
      3 vectors produced by pass  0 Test12= 7.14D-12 3.33D-08 XBig12= 1.24D+03 1.10D+01.
 AX will form     3 AO Fock derivatives at one time.
 FoFJK:  IHMeth= 1 ICntrl=     500 DoSepK=F KAlg= 0 I1Cent=           0 FoldK=F
 IRaf= 760000000 NMat=       3 IRICut=       1 DoRegI=T DoRafI=F ISym2E= 0 IDoP0=0 IntGTp=1.
 FoFCou: FMM=F IPFlag=           0 FMFlag=      100000 FMFlg1=           0
         NFxFlg=           0 DoJE=T BraDBF=F KetDBF=F FulRan=T
         wScrn=  0.000000 ICntrl=       500 IOpCl=  0 I1Cent=           0 NGrid=           0
         NMat0=    3 NMatS0=      3 NMatT0=    0 NMatD0=    3 NMtDS0=    0 NMtDT0=    0
 Symmetry not used in FoFCou.
      3 vectors produced by pass  1 Test12= 7.14D-12 3.33D-08 XBig12= 6.86D+03 2.53D+01.
      3 vectors produced by pass  2 Test12= 7.14D-12 3.33D-08 XBig12= 3.23D+04 3.45D+01.
      3 vectors produced by pass  3 Test12= 7.14D-12 3.33D-08 XBig12= 5.41D+04 6.79D+01.
      3 vectors produced by pass  4 Test12= 7.14D-12 3.33D-08 XBig12= 9.89D+04 4.68D+01.
      3 vectors produced by pass  5 Test12= 7.14D-12 3.33D-08 XBig12= 7.04D+04 4.09D+01.
      3 vectors produced by pass  6 Test12= 7.14D-12 3.33D-08 XBig12= 3.90D+04 3.66D+01.
      3 vectors produced by pass  7 Test12= 7.14D-12 3.33D-08 XBig12= 4.17D+04 4.12D+01.
      3 vectors produced by pass  8 Test12= 7.14D-12 3.33D-08 XBig12= 1.91D+04 4.01D+01.
      3 vectors produced by pass  9 Test12= 7.14D-12 3.33D-08 XBig12= 2.21D+04 3.04D+01.
      3 vectors produced by pass 10 Test12= 7.14D-12 3.33D-08 XBig12= 1.81D+04 3.04D+01.
      3 vectors produced by pass 11 Test12= 7.14D-12 3.33D-08 XBig12= 1.60D+04 2.69D+01.
      3 vectors produced by pass 12 Test12= 7.14D-12 3.33D-08 XBig12= 8.98D+03 1.38D+01.
      3 vectors produced by pass 13 Test12= 7.14D-12 3.33D-08 XBig12= 2.70D+03 7.71D+00.
      3 vectors produced by pass 14 Test12= 7.14D-12 3.33D-08 XBig12= 2.25D+03 6.35D+00.
      3 vectors produced by pass 15 Test12= 7.14D-12 3.33D-08 XBig12= 1.65D+03 4.23D+00.
      3 vectors produced by pass 16 Test12= 7.14D-12 3.33D-08 XBig12= 7.51D+02 3.86D+00.
      3 vectors produced by pass 17 Test12= 7.14D-12 3.33D-08 XBig12= 3.68D+02 3.69D+00.
      3 vectors produced by pass 18 Test12= 7.14D-12 3.33D-08 XBig12= 6.29D+01 1.16D+00.
      3 vectors produced by pass 19 Test12= 7.14D-12 3.33D-08 XBig12= 8.31D+00 3.67D-01.
      3 vectors produced by pass 20 Test12= 7.14D-12 3.33D-08 XBig12= 1.02D+00 1.43D-01.
      3 vectors produced by pass 21 Test12= 7.14D-12 3.33D-08 XBig12= 1.16D-01 5.33D-02.
      3 vectors produced by pass 22 Test12= 7.14D-12 3.33D-08 XBig12= 1.31D-02 1.46D-02.
      3 vectors produced by pass 23 Test12= 7.14D-12 3.33D-08 XBig12= 1.94D-03 5.30D-03.
      3 vectors produced by pass 24 Test12= 7.14D-12 3.33D-08 XBig12= 2.61D-04 1.20D-03.
      3 vectors produced by pass 25 Test12= 7.14D-12 3.33D-08 XBig12= 3.88D-05 4.85D-04.
      3 vectors produced by pass 26 Test12= 7.14D-12 3.33D-08 XBig12= 4.85D-06 2.35D-04.
      3 vectors produced by pass 27 Test12= 7.14D-12 3.33D-08 XBig12= 5.81D-07 7.90D-05.
      3 vectors produced by pass 28 Test12= 7.14D-12 3.33D-08 XBig12= 6.58D-08 3.54D-05.
      2 vectors produced by pass 29 Test12= 7.14D-12 3.33D-08 XBig12= 6.85D-09 1.30D-05.
      1 vectors produced by pass 30 Test12= 7.14D-12 3.33D-08 XBig12= 6.57D-10 3.52D-06.
      1 vectors produced by pass 31 Test12= 7.14D-12 3.33D-08 XBig12= 7.09D-11 8.01D-07.
      1 vectors produced by pass 32 Test12= 7.14D-12 3.33D-08 XBig12= 5.71D-12 2.27D-07.
      1 vectors produced by pass 33 Test12= 7.14D-12 3.33D-08 XBig12= 4.54D-13 4.72D-08.
 InvSVY:  IOpt=1 It=  1 EMax= 3.55D-14
 Solved reduced A of dimension    93 with     3 vectors.
 End of Minotr F.D. properties file   721 does not exist.
 End of Minotr F.D. properties file   722 does not exist.
 End of Minotr F.D. properties file   788 does not exist.
 Leave Link 1002 at Sun Feb  5 00:56:01 2023, MaxMem= 14763950080 cpu:           20814.2 elap:           10542.9
 (Enter /software/commercial/gaussian/g16/AVX2/g16/l1101.exe)
 Using compressed storage, NAtomX=    37.
 Will process     38 centers per pass.
 Leave Link 1101 at Sun Feb  5 00:56:14 2023, MaxMem= 14763950080 cpu:               4.0 elap:              11.2
 (Enter /software/commercial/gaussian/g16/AVX2/g16/l1102.exe)
 Symmetrizing basis deriv contribution to polar:
 IMax=3 JMax=2 DiffMx= 0.00D+00
 Leave Link 1102 at Sun Feb  5 00:56:18 2023, MaxMem= 14763950080 cpu:               0.3 elap:               2.7
 (Enter /software/commercial/gaussian/g16/AVX2/g16/l1110.exe)
 Forming Gx(P) for the SCF density, NAtomX=    37.
 Integral derivatives from FoFJK, PRISM(SPDF).
 Do as many integral derivatives as possible in FoFJK.
 G2DrvN: MDV=   14763945985.
 G2DrvN: will do    38 centers at a time, making    1 passes.
 PxScal for G2LodP:  IOpCl= 1 ISclPx=1 IMOff=     1 NMtTot=     4 NTT=  441330 ScalPx= 1.40D+00
 Calling FoFCou, ICntrl=  3507 FMM=F I1Cent=   0 AccDes= 0.00D+00.
 FoFJK:  IHMeth= 1 ICntrl=    3507 DoSepK=F KAlg= 0 I1Cent=           0 FoldK=F
 IRaf=         0 NMat=       1 IRICut=       1 DoRegI=T DoRafI=F ISym2E= 0 IDoP0=0 IntGTp=1.
 FoFCou: FMM=F IPFlag=           0 FMFlag=      100000 FMFlg1=           0
         NFxFlg=           0 DoJE=F BraDBF=F KetDBF=F FulRan=T
         wScrn=  0.000000 ICntrl=      3507 IOpCl=  0 I1Cent=           0 NGrid=           0
         NMat0=    1 NMatS0=      1 NMatT0=    0 NMatD0=    4 NMtDS0=    3 NMtDT0=    0
 Symmetry not used in FoFCou.
 End of G2Drv F.D. properties file   721 does not exist.
 End of G2Drv F.D. properties file   722 does not exist.
 End of G2Drv F.D. properties file   788 does not exist.
 Leave Link 1110 at Sun Feb  5 03:41:22 2023, MaxMem= 14763950080 cpu:           19741.8 elap:            9902.9
 (Enter /software/commercial/gaussian/g16/AVX2/g16/l1002.exe)
 Minotr:  UHF open shell wavefunction.
          IDoAtm=1111111111111111111111111111111111111
          Direct CPHF calculation.
          Differentiating once with respect to electric field.
                with respect to dipole field.
          Differentiating once with respect to nuclear coordinates.
          Requested convergence is 1.0D-08 RMS, and 1.0D-07 maximum.
          Secondary convergence is 1.0D-12 RMS, and 1.0D-12 maximum.
          NewPWx=T KeepS1=F KeepF1=F KeepIn=T MapXYZ=F SortEE=F KeepMc=T.
        11391 words used for storage of precomputed grid.
 Two-electron integral symmetry not used.
          MDV=   14763950080 using IRadAn=       1.
          Solving linear equations simultaneously, MaxMat=     384.
 FoF2E skips out because all densities are zero.
 CalDSu exits because no D1Ps are significant.
 FoFJK:  IHMeth= 1 ICntrl=     500 DoSepK=F KAlg= 0 I1Cent=           0 FoldK=F
 IRaf= 760000000 NMat=     111 IRICut=       1 DoRegI=T DoRafI=F ISym2E= 0 IDoP0=3 IntGTp=3.
 FoFCou: FMM=F IPFlag=           0 FMFlag=      100000 FMFlg1=           0
         NFxFlg=           0 DoJE=F BraDBF=F KetDBF=F FulRan=T
         wScrn=  0.000000 ICntrl=       500 IOpCl=  0 I1Cent=           0 NGrid=           0
         NMat0=  111 NMatS0=    111 NMatT0=    0 NMatD0=  111 NMtDS0=    0 NMtDT0=    0
 Symmetry not used in FoFCou.
          There are   114 degrees of freedom in the 1st order CPHF.  IDoFFX=5 NUNeed=   114.
 Will reuse    3 saved solutions.
    108 vectors produced by pass  0 Test12= 2.14D-13 1.00D-09 XBig12= 5.89D-01 2.43D-01.
 AX will form   108 AO Fock derivatives at one time.
    108 vectors produced by pass  1 Test12= 2.14D-13 1.00D-09 XBig12= 2.22D-01 5.63D-02.
    108 vectors produced by pass  2 Test12= 2.14D-13 1.00D-09 XBig12= 1.68D-03 6.87D-03.
    108 vectors produced by pass  3 Test12= 2.14D-13 1.00D-09 XBig12= 4.85D-05 7.20D-04.
    108 vectors produced by pass  4 Test12= 2.14D-13 1.00D-09 XBig12= 8.30D-07 9.41D-05.
    108 vectors produced by pass  5 Test12= 2.14D-13 1.00D-09 XBig12= 1.07D-08 7.02D-06.
    108 vectors produced by pass  6 Test12= 2.14D-13 1.00D-09 XBig12= 1.16D-10 9.37D-07.
     95 vectors produced by pass  7 Test12= 2.14D-13 1.00D-09 XBig12= 9.76D-13 9.64D-08.
     32 vectors produced by pass  8 Test12= 2.14D-13 1.00D-09 XBig12= 7.68D-15 6.74D-09.
 InvSVY:  IOpt=1 It=  1 EMax= 1.33D-15
 Solved reduced A of dimension   883 with   114 vectors.
 FullF1:  Do perturbations      1 to       3.
 Isotropic polarizability for W=    0.000000      238.97 Bohr**3.
 FullF1:  Do perturbations      1 to       6.
 End of Minotr F.D. properties file   721 does not exist.
 End of Minotr F.D. properties file   722 does not exist.
 End of Minotr F.D. properties file   788 does not exist.
 Leave Link 1002 at Sun Feb  5 09:55:44 2023, MaxMem= 14763950080 cpu:           44453.2 elap:           22461.2
 (Enter /software/commercial/gaussian/g16/AVX2/g16/l601.exe)
 Copying SCF densities to generalized density rwf, IOpCl= 1 IROHF=0.

 **********************************************************************

            Population analysis using the SCF Density.

 **********************************************************************

 Alpha  occ. eigenvalues -- -255.65156-255.65109-255.62345 -30.10217 -30.10174
 Alpha  occ. eigenvalues --  -30.06357 -25.87318 -25.87290 -25.87228 -25.87169
 Alpha  occ. eigenvalues --  -25.87142 -25.87101 -25.83859 -25.83817 -25.83433
 Alpha  occ. eigenvalues --  -19.02607 -19.02308 -18.99091 -18.99044 -18.99018
 Alpha  occ. eigenvalues --  -18.99004 -18.98450 -18.98395 -18.98328 -18.98143
 Alpha  occ. eigenvalues --  -18.97919 -18.97809 -18.97333 -18.97186 -18.96927
 Alpha  occ. eigenvalues --  -18.96521 -14.24184 -14.24041 -10.19051 -10.18920
 Alpha  occ. eigenvalues --  -10.17836 -10.17742 -10.17650 -10.17426  -3.67048
 Alpha  occ. eigenvalues --   -3.67009  -3.60207  -2.41181  -2.41174  -2.40981
 Alpha  occ. eigenvalues --   -2.40921  -2.40850  -2.40798  -2.35302  -2.35137
 Alpha  occ. eigenvalues --   -2.32851  -1.07890  -1.07379  -1.06726  -1.06568
 Alpha  occ. eigenvalues --   -1.06237  -1.06093  -1.05109  -1.04765  -1.04466
 Alpha  occ. eigenvalues --   -0.99942  -0.99627  -0.99008  -0.98816  -0.98529
 Alpha  occ. eigenvalues --   -0.98382  -0.93494  -0.88636  -0.60148  -0.59235
 Alpha  occ. eigenvalues --   -0.58668  -0.58364  -0.58095  -0.57907  -0.54960
 Alpha  occ. eigenvalues --   -0.54581  -0.50170  -0.49829  -0.49635  -0.49096
 Alpha  occ. eigenvalues --   -0.48797  -0.48558  -0.47997  -0.47778  -0.47621
 Alpha  occ. eigenvalues --   -0.47442  -0.46716  -0.46486  -0.46218  -0.46037
 Alpha  occ. eigenvalues --   -0.45041  -0.44111  -0.43455  -0.42866  -0.42702
 Alpha  occ. eigenvalues --   -0.41826  -0.41489  -0.41079  -0.40968  -0.40837
 Alpha  occ. eigenvalues --   -0.40761  -0.40112  -0.39758  -0.39554  -0.39290
 Alpha  occ. eigenvalues --   -0.38899  -0.38676  -0.38403  -0.37622  -0.37585
 Alpha  occ. eigenvalues --   -0.37512  -0.37218  -0.35772  -0.35280  -0.35085
 Alpha  occ. eigenvalues --   -0.34081  -0.33200  -0.32535  -0.32440  -0.30908
 Alpha  occ. eigenvalues --   -0.30409  -0.30126  -0.29647  -0.29540  -0.29232
 Alpha  occ. eigenvalues --   -0.28902  -0.28698  -0.28553  -0.28384  -0.28020
 Alpha  occ. eigenvalues --   -0.27743  -0.27213  -0.25734  -0.25499  -0.25114
 Alpha  occ. eigenvalues --   -0.23771  -0.23389  -0.22869  -0.22789  -0.22404
 Alpha virt. eigenvalues --   -0.14457  -0.04560  -0.03812  -0.02989  -0.02988
 Alpha virt. eigenvalues --   -0.02924  -0.02657  -0.02543  -0.02130   0.01092
 Alpha virt. eigenvalues --    0.02001   0.06252   0.07118   0.07295   0.07862
 Alpha virt. eigenvalues --    0.08527   0.08840   0.08888   0.09227   0.09448
 Alpha virt. eigenvalues --    0.10885   0.11461   0.11994   0.14323   0.14654
 Alpha virt. eigenvalues --    0.15449   0.16425   0.16804   0.17908   0.18471
 Alpha virt. eigenvalues --    0.19099   0.19280   0.21273   0.22031   0.22468
 Alpha virt. eigenvalues --    0.22537   0.22893   0.23425   0.23660   0.24490
 Alpha virt. eigenvalues --    0.24751   0.25022   0.25358   0.26312   0.26938
 Alpha virt. eigenvalues --    0.27630   0.27737   0.28203   0.28453   0.29148
 Alpha virt. eigenvalues --    0.29638   0.29824   0.30510   0.30724   0.30944
 Alpha virt. eigenvalues --    0.31150   0.31991   0.32282   0.32791   0.33010
 Alpha virt. eigenvalues --    0.33480   0.33684   0.34211   0.34245   0.35330
 Alpha virt. eigenvalues --    0.35814   0.36265   0.36881   0.37414   0.37657
 Alpha virt. eigenvalues --    0.37924   0.38572   0.38778   0.39139   0.39341
 Alpha virt. eigenvalues --    0.39950   0.39969   0.40223   0.40698   0.41034
 Alpha virt. eigenvalues --    0.41496   0.41883   0.42487   0.42938   0.43131
 Alpha virt. eigenvalues --    0.43570   0.44383   0.44739   0.44792   0.45077
 Alpha virt. eigenvalues --    0.46065   0.46350   0.47572   0.48400   0.49200
 Alpha virt. eigenvalues --    0.49399   0.49723   0.50195   0.51273   0.51813
 Alpha virt. eigenvalues --    0.52169   0.52867   0.53141   0.53883   0.54199
 Alpha virt. eigenvalues --    0.54672   0.54804   0.55113   0.56223   0.56365
 Alpha virt. eigenvalues --    0.56873   0.57715   0.58228   0.58362   0.59428
 Alpha virt. eigenvalues --    0.60452   0.61105   0.61899   0.62138   0.62844
 Alpha virt. eigenvalues --    0.63724   0.64271   0.64938   0.66143   0.67078
 Alpha virt. eigenvalues --    0.67578   0.67933   0.68565   0.68899   0.69604
 Alpha virt. eigenvalues --    0.70179   0.70755   0.70812   0.71348   0.71573
 Alpha virt. eigenvalues --    0.71861   0.72586   0.73069   0.73357   0.73799
 Alpha virt. eigenvalues --    0.73921   0.74835   0.75339   0.75613   0.75892
 Alpha virt. eigenvalues --    0.76554   0.76906   0.77852   0.78614   0.78885
 Alpha virt. eigenvalues --    0.80647   0.80776   0.81371   0.81877   0.82370
 Alpha virt. eigenvalues --    0.82833   0.83725   0.84863   0.85755   0.87510
 Alpha virt. eigenvalues --    0.87957   0.88565   0.89649   0.89971   0.90694
 Alpha virt. eigenvalues --    0.90947   0.91828   0.92584   0.92902   0.93745
 Alpha virt. eigenvalues --    0.93830   0.94525   0.95073   0.95668   0.96551
 Alpha virt. eigenvalues --    0.97205   0.98102   0.98796   0.99453   0.99992
 Alpha virt. eigenvalues --    1.00861   1.01077   1.02535   1.02987   1.03538
 Alpha virt. eigenvalues --    1.04117   1.04777   1.05298   1.05527   1.06434
 Alpha virt. eigenvalues --    1.07310   1.07801   1.08183   1.08815   1.09910
 Alpha virt. eigenvalues --    1.10741   1.11110   1.11609   1.13532   1.14588
 Alpha virt. eigenvalues --    1.15982   1.17741   1.19001   1.19815   1.20199
 Alpha virt. eigenvalues --    1.20556   1.22448   1.22752   1.24282   1.25087
 Alpha virt. eigenvalues --    1.25299   1.25691   1.26674   1.27423   1.28282
 Alpha virt. eigenvalues --    1.31254   1.31422   1.32709   1.33100   1.34462
 Alpha virt. eigenvalues --    1.35499   1.36584   1.37630   1.38901   1.40441
 Alpha virt. eigenvalues --    1.41047   1.41291   1.43323   1.43581   1.44441
 Alpha virt. eigenvalues --    1.45320   1.45980   1.46376   1.46708   1.48110
 Alpha virt. eigenvalues --    1.48684   1.49457   1.49585   1.50680   1.52156
 Alpha virt. eigenvalues --    1.52902   1.53210   1.54143   1.54499   1.55204
 Alpha virt. eigenvalues --    1.57289   1.57598   1.58533   1.58947   1.59892
 Alpha virt. eigenvalues --    1.60126   1.61300   1.62056   1.63070   1.63573
 Alpha virt. eigenvalues --    1.63862   1.64021   1.64709   1.67287   1.68094
 Alpha virt. eigenvalues --    1.69041   1.69506   1.69752   1.70781   1.71449
 Alpha virt. eigenvalues --    1.72482   1.72957   1.73434   1.74048   1.74908
 Alpha virt. eigenvalues --    1.75415   1.75826   1.77176   1.78408   1.78850
 Alpha virt. eigenvalues --    1.79794   1.80308   1.80981   1.81924   1.82203
 Alpha virt. eigenvalues --    1.83359   1.84250   1.86698   1.87077   1.87509
 Alpha virt. eigenvalues --    1.88040   1.88719   1.90196   1.91778   1.92216
 Alpha virt. eigenvalues --    1.92838   1.93530   1.93938   1.94603   1.95552
 Alpha virt. eigenvalues --    1.96921   1.97353   1.97812   1.98612   1.99662
 Alpha virt. eigenvalues --    1.99807   2.00456   2.01219   2.02084   2.02508
 Alpha virt. eigenvalues --    2.03463   2.04161   2.04988   2.05690   2.06688
 Alpha virt. eigenvalues --    2.07084   2.07670   2.07785   2.09079   2.09649
 Alpha virt. eigenvalues --    2.10618   2.10785   2.11421   2.11611   2.12836
 Alpha virt. eigenvalues --    2.13331   2.13520   2.14701   2.14787   2.15409
 Alpha virt. eigenvalues --    2.17192   2.18196   2.18491   2.18749   2.19108
 Alpha virt. eigenvalues --    2.19659   2.20390   2.21603   2.22031   2.23238
 Alpha virt. eigenvalues --    2.24005   2.24531   2.25348   2.25860   2.26598
 Alpha virt. eigenvalues --    2.26837   2.27732   2.28260   2.29654   2.29807
 Alpha virt. eigenvalues --    2.31448   2.32572   2.33466   2.33876   2.34269
 Alpha virt. eigenvalues --    2.35884   2.36485   2.39010   2.39571   2.41812
 Alpha virt. eigenvalues --    2.42758   2.44988   2.45996   2.46383   2.47046
 Alpha virt. eigenvalues --    2.48057   2.48475   2.48786   2.50549   2.51444
 Alpha virt. eigenvalues --    2.53891   2.54849   2.56863   2.57852   2.58186
 Alpha virt. eigenvalues --    2.59116   2.63015   2.63797   2.64505   2.65137
 Alpha virt. eigenvalues --    2.65566   2.66374   2.67246   2.67682   2.68663
 Alpha virt. eigenvalues --    2.68874   2.69713   2.71051   2.71757   2.72650
 Alpha virt. eigenvalues --    2.72856   2.73853   2.74972   2.77225   2.81090
 Alpha virt. eigenvalues --    2.81916   2.82815   2.83234   2.84449   2.85289
 Alpha virt. eigenvalues --    2.86230   2.86848   2.88380   2.90519   2.92705
 Alpha virt. eigenvalues --    2.93032   2.94410   2.95205   2.95667   2.96401
 Alpha virt. eigenvalues --    2.97556   2.97597   2.98329   2.98545   3.00061
 Alpha virt. eigenvalues --    3.01661   3.02631   3.03298   3.04281   3.04664
 Alpha virt. eigenvalues --    3.05457   3.05920   3.06990   3.07031   3.08088
 Alpha virt. eigenvalues --    3.08759   3.09717   3.10555   3.11317   3.11838
 Alpha virt. eigenvalues --    3.12474   3.13336   3.13835   3.14160   3.14621
 Alpha virt. eigenvalues --    3.15274   3.15759   3.16457   3.16891   3.17126
 Alpha virt. eigenvalues --    3.17480   3.18973   3.19193   3.19887   3.21372
 Alpha virt. eigenvalues --    3.21856   3.22834   3.23241   3.24263   3.25111
 Alpha virt. eigenvalues --    3.25796   3.26041   3.27103   3.27881   3.28146
 Alpha virt. eigenvalues --    3.30245   3.30725   3.31850   3.33216   3.33475
 Alpha virt. eigenvalues --    3.36765   3.37833   3.38150   3.40305   3.42788
 Alpha virt. eigenvalues --    3.43432   3.44798   3.44922   3.45659   3.46408
 Alpha virt. eigenvalues --    3.46506   3.47038   3.47894   3.48146   3.48853
 Alpha virt. eigenvalues --    3.49202   3.49744   3.49979   3.50354   3.51186
 Alpha virt. eigenvalues --    3.51751   3.52798   3.53834   3.54136   3.55729
 Alpha virt. eigenvalues --    3.56253   3.57824   3.59093   3.59710   3.61039
 Alpha virt. eigenvalues --    3.61787   3.62086   3.62864   3.63291   3.64007
 Alpha virt. eigenvalues --    3.64955   3.65710   3.66311   3.67850   3.68787
 Alpha virt. eigenvalues --    3.70393   3.70711   3.70934   3.72301   3.72944
 Alpha virt. eigenvalues --    3.73909   3.74006   3.74627   3.77255   3.79313
 Alpha virt. eigenvalues --    3.79923   3.81119   3.81815   3.81890   3.82715
 Alpha virt. eigenvalues --    3.82903   3.83466   3.84299   3.86198   3.88191
 Alpha virt. eigenvalues --    3.90213   3.91024   3.91087   3.92396   3.92671
 Alpha virt. eigenvalues --    3.93524   3.94584   3.94942   3.95833   3.96012
 Alpha virt. eigenvalues --    3.97258   3.99392   3.99948   4.01133   4.01427
 Alpha virt. eigenvalues --    4.02339   4.03866   4.04939   4.05800   4.07593
 Alpha virt. eigenvalues --    4.08832   4.08937   4.13323   4.14666   4.15297
 Alpha virt. eigenvalues --    4.17289   4.19437   4.20048   4.20793   4.21559
 Alpha virt. eigenvalues --    4.22793   4.23389   4.23647   4.24174   4.24278
 Alpha virt. eigenvalues --    4.25741   4.26302   4.27675   4.29765   4.30763
 Alpha virt. eigenvalues --    4.44509   4.46790   4.47190   4.47626   4.48561
 Alpha virt. eigenvalues --    4.49834   4.50506   4.52107   4.52583   4.54778
 Alpha virt. eigenvalues --    4.56020   4.56602   4.58395   4.58751   4.60440
 Alpha virt. eigenvalues --    4.61559   4.63314   4.64453   4.67460   5.09489
 Alpha virt. eigenvalues --    5.09529   5.12177   5.15786   5.17424   5.17929
 Alpha virt. eigenvalues --    5.18131   5.22996   5.23489   5.23606   5.23936
 Alpha virt. eigenvalues --    5.24301   5.24322   5.24735   5.24825   5.25169
 Alpha virt. eigenvalues --    5.25353   5.25642   5.25954   5.26052   5.26417
 Alpha virt. eigenvalues --    5.26782   5.27290   5.27425   5.27779   5.28675
 Alpha virt. eigenvalues --    5.29026   5.29297   5.29732   5.30250   5.31037
 Alpha virt. eigenvalues --    5.31370   5.32215   5.32550   5.32718   5.33150
 Alpha virt. eigenvalues --    5.33352   5.33668   5.34937   5.35361   5.36114
 Alpha virt. eigenvalues --    5.37734   5.38905   5.40013   5.40838   5.41076
 Alpha virt. eigenvalues --    5.42665   5.43652   5.44235   5.45017   5.48250
 Alpha virt. eigenvalues --    5.48330   5.50309   5.51039   5.51909   5.53008
 Alpha virt. eigenvalues --    5.53857   5.54538   5.58295   5.58766   5.59092
 Alpha virt. eigenvalues --    5.59293   5.59947   5.60779   5.61661   5.62556
 Alpha virt. eigenvalues --    5.63182   5.63757   5.64767   5.66559   5.68790
 Alpha virt. eigenvalues --    5.69352   5.69496   5.69920   5.70057   5.70449
 Alpha virt. eigenvalues --    5.88408   5.89337   5.89471   5.93891   5.94312
 Alpha virt. eigenvalues --    5.94598   5.95654   6.05686   6.06334   6.07904
 Alpha virt. eigenvalues --    6.08611   6.09431   6.09525   6.10838   6.11594
 Alpha virt. eigenvalues --    6.16705   6.16845   6.17059   6.17483   6.18278
 Alpha virt. eigenvalues --    6.18523   6.19551   6.21612   6.21895   6.22535
 Alpha virt. eigenvalues --    6.23225   6.27722   6.32862   6.35549   6.36765
 Alpha virt. eigenvalues --    6.38348   6.41829   6.42131   6.42521   6.43103
 Alpha virt. eigenvalues --    6.43714   6.44264   6.47281   6.47690   6.48389
 Alpha virt. eigenvalues --    6.48578   6.49388   6.49823   6.49903   6.50199
 Alpha virt. eigenvalues --    6.50649   6.52408   6.52759   6.53995   6.54624
 Alpha virt. eigenvalues --    6.55141   6.56172   6.57054   6.57573   6.58896
 Alpha virt. eigenvalues --    6.59462   6.60338   6.62464   6.62504   6.63582
 Alpha virt. eigenvalues --    6.63881   6.65059   6.65894   6.66816   6.67431
 Alpha virt. eigenvalues --    6.68099   6.68751   6.69727   6.70142   6.73046
 Alpha virt. eigenvalues --    6.73185   6.73772   6.75039   6.76204   6.79390
 Alpha virt. eigenvalues --    6.81265   6.84295   6.85070   6.86420   6.87411
 Alpha virt. eigenvalues --    6.87965   6.88367   6.89947   6.90388   6.91208
 Alpha virt. eigenvalues --    6.91880   6.93135   6.95104   6.96350   6.97568
 Alpha virt. eigenvalues --    6.97664   6.99037   7.00171   7.00774   7.03772
 Alpha virt. eigenvalues --    7.04392   7.06098   7.06651   7.07635   7.09386
 Alpha virt. eigenvalues --    7.10393   7.11025   7.11591   7.13037   7.13373
 Alpha virt. eigenvalues --    7.15657   7.23146   7.23611   7.24072   7.24897
 Alpha virt. eigenvalues --    7.26366   7.26755   7.26922   7.27712   7.28071
 Alpha virt. eigenvalues --    7.29259   7.29485   7.29783   7.30824   7.33976
 Alpha virt. eigenvalues --    7.34303   7.36839   7.37522   7.41233   7.47405
 Alpha virt. eigenvalues --   23.21866  23.22205  23.23453  23.24493  23.25485
 Alpha virt. eigenvalues --   23.28208  31.50624  32.25620  43.68557  43.69812
 Alpha virt. eigenvalues --   43.75500  43.83958  43.92419  43.97131  43.97521
 Alpha virt. eigenvalues --   44.09760  44.10950  44.15830  44.16077  44.18102
 Alpha virt. eigenvalues --   44.19640  44.21834  44.31397  44.32751
  Beta  occ. eigenvalues -- -255.64982-255.64935-255.62230 -29.98479 -29.98435
  Beta  occ. eigenvalues --  -29.97200 -25.78687 -25.78652 -25.78641 -25.78598
  Beta  occ. eigenvalues --  -25.78590 -25.78552 -25.77945 -25.76633 -25.76467
  Beta  occ. eigenvalues --  -19.02439 -19.02144 -18.98823 -18.98787 -18.98750
  Beta  occ. eigenvalues --  -18.98695 -18.98044 -18.97993 -18.97976 -18.97742
  Beta  occ. eigenvalues --  -18.97709 -18.97600 -18.97120 -18.96961 -18.95444
  Beta  occ. eigenvalues --  -18.94882 -14.24183 -14.24040 -10.19055 -10.18922
  Beta  occ. eigenvalues --  -10.17837 -10.17742 -10.17654 -10.17428  -3.41943
  Beta  occ. eigenvalues --   -3.41901  -3.41665  -2.18397  -2.16371  -2.16337
  Beta  occ. eigenvalues --   -2.16323  -2.16302  -2.16297  -2.16251  -2.14980
  Beta  occ. eigenvalues --   -2.14650  -1.07346  -1.06817  -1.06098  -1.05926
  Beta  occ. eigenvalues --   -1.05637  -1.05430  -1.05105  -1.04421  -1.04129
  Beta  occ. eigenvalues --   -0.99291  -0.98954  -0.98238  -0.98049  -0.97821
  Beta  occ. eigenvalues --   -0.97599  -0.89417  -0.84262  -0.59497  -0.58542
  Beta  occ. eigenvalues --   -0.58084  -0.57727  -0.57325  -0.57084  -0.54673
  Beta  occ. eigenvalues --   -0.54290  -0.49821  -0.49116  -0.48413  -0.47753
  Beta  occ. eigenvalues --   -0.47537  -0.46994  -0.46604  -0.46458  -0.46178
  Beta  occ. eigenvalues --   -0.46100  -0.46039  -0.45538  -0.45386  -0.43580
  Beta  occ. eigenvalues --   -0.42161  -0.41989  -0.41842  -0.41552  -0.41410
  Beta  occ. eigenvalues --   -0.40987  -0.40725  -0.40608  -0.40077  -0.36804
  Beta  occ. eigenvalues --   -0.36776  -0.35772  -0.34522  -0.34080  -0.32133
  Beta  occ. eigenvalues --   -0.31917  -0.31362  -0.30990  -0.30848  -0.30386
  Beta  occ. eigenvalues --   -0.30145  -0.29926  -0.29567  -0.29402  -0.28938
  Beta  occ. eigenvalues --   -0.28633  -0.28413  -0.28019  -0.27805  -0.27775
  Beta  occ. eigenvalues --   -0.27691  -0.27576  -0.26841  -0.25519  -0.25012
  Beta  occ. eigenvalues --   -0.24596
  Beta virt. eigenvalues --   -0.17780  -0.17700  -0.16969  -0.16721  -0.16533
  Beta virt. eigenvalues --   -0.14867  -0.14811  -0.11921  -0.11852  -0.11362
  Beta virt. eigenvalues --   -0.11125  -0.11005  -0.10226  -0.08915  -0.06064
  Beta virt. eigenvalues --   -0.03915  -0.03495  -0.02987  -0.02879  -0.02281
  Beta virt. eigenvalues --   -0.02133  -0.01887  -0.01664   0.01294   0.02206
  Beta virt. eigenvalues --    0.06733   0.07206   0.07448   0.07971   0.08634
  Beta virt. eigenvalues --    0.08934   0.09045   0.09274   0.09538   0.11358
  Beta virt. eigenvalues --    0.11798   0.12044   0.14593   0.15894   0.16687
  Beta virt. eigenvalues --    0.17085   0.17561   0.18040   0.19030   0.20460
  Beta virt. eigenvalues --    0.20780   0.21453   0.22511   0.22658   0.23066
  Beta virt. eigenvalues --    0.23463   0.23978   0.24339   0.24833   0.24951
[...]
 0.00017756,-0.00010559,0.00015194,0.00025629,-0.00000415,-0.00008227,-
 0.00001856,0.00000054,0.00001168,0.00033871,-0.00018223,0.00036376,-0.
 00020934,-0.00026979,-0.00022616,0.00209504,-0.00155378,0.00106105,-0.
 00041963,-0.00061352,0.00047407,0.00023304,0.00114533,-0.00014753,0.00
 076733,0.00054822,-0.00050279,-0.00063019,0.00030753,0.00005676,0.0005
 5656,0.00037902,0.00011972,-0.00004499,-0.00001278,0.00000601,-0.00046
 798,-0.00121296,-0.00049604,-0.00002281,-0.00002380,-0.00001366,0.0000
 1118,0.00000653,-0.00000759,-0.00000417,-0.00000201,0.00000595,-0.0000
 7080,-0.00000495,-0.00002190,-0.15148030,-0.06078057,0.21586236,0.1413
 6908,0.00032818,0.00045557,0.00011218,0.00023090,0.00006169,-0.0000900
 9,-0.00049316,-0.00024788,-0.00005751,0.00003153,0.00001947,0.00004141
 ,0.00043413,-0.00005143,-0.00075131,-0.00008439,0.00003664,-0.00030473
 ,0.00050061,-0.00019152,0.00030034,-0.00013813,-0.00003194,-0.00000102
 ,0.00012806,0.00054358,-0.00001082,-0.00216262,0.00361199,-0.00171369,
 -0.00395848,0.00385945,0.00289199,0.00573554,-0.00343175,-0.00096378,-
 0.00038647,0.00005225,0.00022852,0.00020203,-0.00003091,-0.00005654,0.
 00030949,0.00030653,-0.00040516,-0.00042766,-0.00006430,0.00025304,0.0
 0002801,0.00002211,-0.00004404,-0.00051268,-0.00012500,0.00040557,-0.0
 0015263,-0.00056223,-0.00038190,-0.00581314,-0.00558162,0.00924750,-0.
 00062339,-0.00128360,0.00044824,0.00127374,0.00053188,0.00025523,-0.00
 060585,-0.00139806,0.00126684,0.00054101,0.00009958,-0.00030977,0.0004
 7602,0.00046391,0.00022013,-0.00003775,0.00000306,-0.00003601,-0.00060
 406,-0.00082656,-0.00067690,0.00002184,0.00003947,0.00009159,-0.000013
 47,0.00001622,-0.00000026,0.00001396,-0.00001539,-0.00000227,0.0002119
 0,0.00010801,-0.00003644,-0.05453918,-0.03089226,0.07741263,0.05634636
 ,0.03315738,0.00009617,0.00002534,-0.00013820,0.00007949,-0.00005158,-
 0.00010920,-0.00012949,0.00000219,0.00007510,0.00000267,-0.00002042,-0
 .00001112,0.00073061,-0.00135579,0.00071416,0.00027884,-0.00115325,-0.
 00054973,-0.00103824,0.00140681,-0.00011284,0.00003898,-0.00002568,0.0
 0002617,-0.00006802,0.00031116,-0.00015940,-0.00110076,0.00200313,-0.0
 0091289,-0.00130516,0.00110555,-0.00131359,0.00296151,-0.00175010,-0.0
 0097774,0.00011891,0.00004043,0.00012984,0.00001143,-0.00005039,-0.000
 00232,0.00004858,-0.00006643,-0.00005030,-0.00003017,0.00005748,-0.000
 03504,0.00000812,0.00000672,0.00000513,0.00016670,0.00018377,0.0003073
 6,-0.00015622,-0.00039436,-0.00023775,0.00059868,0.00604675,0.00280520
 ,-0.00037608,-0.00049685,0.00035220,-0.00004263,0.00035847,-0.00080349
 ,-0.00063392,0.00005336,0.00112375,0.00049004,-0.00100934,-0.00028397,
 0.00040088,0.00052138,0.00005208,-0.00002402,-0.00001340,0.00000607,-0
 .00010077,-0.00036642,-0.00001446,-0.00008555,-0.00004457,-0.00006366,
 0.00000762,0.00000619,0.00000106,-0.00000363,-0.00000547,-0.00000364,-
 0.00004809,-0.00003805,-0.00002415,0.16088290,0.06317452,-0.37121899,-
 0.18512812,-0.07726131,0.39907317,-0.00019407,-0.00010955,-0.00011300,
 -0.00015709,0.00003226,0.00007699,0.00026909,0.00005499,-0.00003841,-0
 .00002090,-0.00001311,0.00000242,-0.00023756,-0.00204070,0.00089477,0.
 00062995,-0.00241220,-0.00073385,-0.00296828,0.00262175,-0.00128244,0.
 00002316,0.00003243,0.00003159,-0.00010135,-0.00016299,0.00005331,-0.0
 0038392,0.00033206,-0.00034177,-0.00119704,0.00088840,0.00042302,0.000
 42864,-0.00018579,0.00022489,-0.00004499,0.00002735,0.00005876,-0.0002
 8008,0.00013097,-0.00004834,-0.00030465,-0.00016484,0.00015564,0.00044
 814,-0.00000584,-0.00013758,-0.00001901,0.00000223,0.00000203,0.000356
 82,-0.00028703,-0.00028928,0.00039335,0.00096228,0.00046062,0.00216605
 ,-0.00293652,-0.00093000,0.00048622,0.00120903,-0.00000181,-0.00032600
 ,-0.00032897,-0.00034348,0.00104467,0.00053070,0.00073562,-0.00081277,
 0.00053903,-0.00001513,-0.00099689,-0.00095007,0.00007939,0.00002148,-
 0.00000514,0.00000355,0.00018564,0.00011569,0.00010753,-0.00001539,-0.
 00002067,-0.00003272,-0.00000146,-0.00000972,-0.00000206,-0.00000144,0
 .00000865,0.00000295,-0.00008387,-0.00000783,0.00003241,-0.24175714,-0
 .07503372,-0.24412122,0.01180340,0.00365859,0.02325189,0.23167336,0.00
 025214,0.00029949,0.00029045,0.00014613,0.00002557,0.00000813,-0.00036
 300,-0.00017251,-0.00006018,0.00003075,0.00004408,0.00002728,-0.003892
 75,0.00310609,-0.00256546,-0.00111935,0.00397912,0.00065380,0.00427596
 ,-0.00347143,0.00231337,-0.00036770,0.00008333,-0.00025246,0.00003957,
 -0.00051871,0.00017507,0.00002096,-0.00009378,0.00044240,0.00065766,-0
 .00028426,0.00040920,0.00035922,-0.00002678,-0.00053799,-0.00007917,-0
 .00006562,0.00001453,0.00020810,0.00002493,-0.00001513,0.00028954,0.00
 039050,-0.00025775,-0.00042467,-0.00012997,0.00028786,0.00001203,0.000
 00468,-0.00004099,-0.00048856,-0.00023623,-0.00032463,0.00042399,0.000
 62655,0.00020040,-0.00770043,-0.00625041,-0.00762499,0.00156572,0.0005
 8959,-0.00035372,-0.00046071,-0.00095411,-0.00019095,-0.00066554,-0.00
 130842,-0.00126232,0.00052183,0.00012196,0.00018943,-0.00098160,-0.000
 74708,0.00027955,0.00010987,0.00007497,-0.00012784,0.00006280,0.000352
 79,0.00009238,0.00001617,-0.00000838,0.00000490,-0.00001612,0.00000328
 ,0.00000250,0.00000652,-0.00000364,-0.00000536,0.00020200,0.00010908,0
 .00001097,-0.07175123,-0.03205744,-0.06518805,0.00560225,0.00133952,0.
 00885794,0.07354497,0.03505570,0.00001470,0.00009592,-0.00004908,0.000
 03427,0.00005186,-0.00002618,-0.00004970,-0.00006134,-0.00001872,0.000
 00262,-0.00000656,0.00001324,0.00041672,-0.00069194,-0.00171575,0.0001
 4542,-0.00159204,-0.00023782,-0.00160827,0.00167223,-0.00116230,-0.000
 09074,0.00005052,0.00000440,0.00008694,0.00048716,-0.00015876,-0.00042
 017,0.00098585,-0.00071568,-0.00043110,0.00119498,0.00054615,0.0013293
 5,-0.00148386,0.00015681,-0.00002751,0.00000978,-0.00002420,0.00001819
 ,-0.00000007,-0.00007913,-0.00000978,0.00006972,-0.00016222,-0.0000426
 4,-0.00002546,0.00008980,0.00000457,0.00001892,-0.00001841,-0.00023646
 ,-0.00004798,0.00043291,-0.00026954,-0.00074753,-0.00036692,-0.0002249
 9,-0.00532522,0.00330881,-0.00052753,-0.00070335,-0.00081667,0.0005709
 5,0.00058326,0.00037225,0.00057478,-0.00020790,0.00091821,-0.00042255,
 0.00091710,-0.00021042,0.00065517,0.00064612,-0.00009668,0.00007335,0.
 00000903,-0.00000508,-0.00031156,-0.00056199,-0.00013793,0.00000920,0.
 00002476,0.00002905,0.00000233,0.00000914,-0.00000470,0.00000316,-0.00
 000541,0.00000393,0.00006423,0.00004149,-0.00003727,-0.18898538,-0.049
 86632,-0.27926998,-0.03217442,-0.01005365,-0.02762177,0.22183242,0.064
 52592,0.30706251,-0.01572306,-0.00672676,-0.00919201,-0.00297455,-0.00
 054398,0.00127974,0.00433792,0.00349191,-0.00062101,-0.00048992,-0.000
 75840,-0.00025233,0.00114400,-0.00010145,0.00078940,0.00208249,0.00206
 263,0.00198706,-0.00045365,0.00039372,-0.00016577,0.00006228,0.0003847
 2,0.00023686,-0.00041062,0.00050265,-0.00041204,0.00010157,0.00831900,
 -0.00438049,0.00008087,0.00072562,-0.00048630,0.00000466,-0.00034106,0
 .00057238,-0.00005781,0.00039689,-0.00045610,-0.00063112,-0.00010336,0
 .00047594,-0.00374664,-0.00280446,0.00455374,0.00119120,0.00040809,-0.
 00111699,-0.00023957,-0.00015957,0.00038385,0.00191172,0.00015214,-0.0
 0072977,-0.00029088,0.00049441,0.00045612,-0.00041562,-0.00458736,-0.0
 0048101,-0.00025974,0.00042169,0.00049574,-0.00046137,0.00066589,-0.00
 035394,-0.01852657,0.00232048,-0.00127082,-0.00391430,0.00424222,0.000
 07869,0.00018947,-0.00044512,-0.00051541,-0.00004813,0.00004010,0.0001
 2982,0.00036863,-0.00053931,0.00047046,-0.00004614,0.00006110,-0.00012
 702,0.00003819,-0.00001131,-0.00000097,-0.00002651,0.00000185,0.000006
 17,-0.00058241,-0.00025688,0.00009201,0.00003462,0.00071153,0.00003556
 ,-0.00001824,-0.00019800,0.00002925,-0.00006034,-0.00014529,-0.0000798
 1,0.20952812,-0.00505205,0.00214133,-0.00180389,-0.00202438,0.00002842
 ,0.00119528,0.00265763,0.00216556,0.00000602,0.00018042,-0.00002190,0.
 00016662,0.00116281,-0.00128377,0.00046222,0.00224456,-0.00540120,-0.0
 0468059,-0.00039712,0.00280953,-0.00011644,-0.00019741,-0.00030702,0.0
 0002239,0.00011898,0.00082543,-0.00009202,0.00568289,-0.01237992,0.007
 92299,0.00278719,-0.00268709,-0.00059830,-0.00112920,0.00445754,-0.001
 92296,-0.00006006,-0.00047881,0.00032458,-0.00108355,0.00041006,-0.000
 04690,-0.00197941,0.00121557,0.00129061,0.00086685,0.00029978,-0.00045
 525,0.00003595,-0.00009227,-0.00010413,-0.00037281,-0.00198702,-0.0002
 1327,0.00028140,0.00061810,0.00016113,-0.00223747,0.00070474,0.0008076
 9,0.00087516,0.00027847,-0.00058672,0.00101716,0.00040878,0.00063271,0
 .00163724,-0.01138279,-0.00089326,0.00157976,-0.00094868,-0.00000307,-
 0.00083997,-0.00081506,0.00015691,0.00007727,0.00004923,-0.00004824,-0
 .00068168,-0.00114725,-0.00049084,0.00003918,0.00006082,0.00006011,-0.
 00000917,0.00000610,-0.00000673,0.00001023,-0.00000435,0.00000471,0.00
 029676,0.00036387,-0.00000062,0.00026637,-0.00049049,-0.00011071,-0.00
 012090,0.00031033,0.00004155,-0.00007567,0.00020851,0.00005800,0.25062
 091,0.51684894,-0.00745540,-0.00290547,-0.00099014,-0.00254467,-0.0001
 7914,0.00106856,0.00261061,0.00237651,0.00054560,-0.00009212,-0.000122
 37,-0.00012198,0.00143271,-0.00139775,0.00112814,0.00200289,-0.0050563
 5,-0.00296134,-0.00089344,0.00280161,-0.00051279,-0.00004592,-0.000166
 68,0.00000377,-0.00004379,0.00018551,0.00007530,-0.00242688,0.00649798
 ,-0.00112086,-0.00184533,0.00147902,0.00046013,0.00073976,-0.00218932,
 0.00149216,-0.00003192,-0.00000918,-0.00011693,0.00110254,-0.00024676,
 0.00023608,0.00288450,0.00145899,-0.00177247,-0.00137001,-0.00014735,0
 .00064606,0.00006966,-0.00002837,-0.00008491,-0.00012538,-0.00068034,-
 0.00104238,0.00013200,0.00005696,0.00004967,-0.00026393,0.00060400,-0.
 00151244,0.00016162,-0.00002605,0.00007137,0.00012162,0.00009489,0.000
 27583,0.00436815,-0.00380751,-0.00749532,0.00121184,-0.00093861,0.0002
 4977,-0.00012479,-0.00003245,0.00004043,-0.00001362,0.00001024,-0.0000
 1702,-0.00008963,-0.00022576,-0.00012129,0.00003275,0.00001054,0.00000
 831,-0.00000257,-0.00000262,-0.00000026,-0.00000055,0.00000343,0.00000
 045,0.00008909,0.00010334,0.00007880,0.00004196,-0.00010335,0.00019414
 ,0.00003981,-0.00009582,-0.00012892,-0.00006674,0.00011129,-0.00006745
 ,-0.03550132,0.06667633,0.44773965,-0.00030993,0.00077367,-0.00080680,
 0.00033242,0.00002672,-0.00002760,-0.00059056,-0.00009168,-0.00029906,
 0.00006993,-0.00001026,0.00010462,0.00007367,-0.00031378,-0.00021636,0
 .00000587,-0.00084155,-0.00118362,0.00016082,0.00091735,0.00035544,-0.
 00011353,-0.00016880,-0.00004418,0.00009786,0.00014054,0.00000933,0.00
 132844,-0.00404607,0.00259003,0.00232064,-0.00220348,-0.00050970,-0.00
 116211,0.00383742,-0.00172974,-0.00004235,-0.00034005,0.00026908,-0.00
 016628,0.00012181,-0.00011682,-0.00042282,0.00026702,0.00003203,0.0000
 4878,-0.00004287,0.00013653,0.00000706,0.00000609,-0.00003159,-0.00041
 285,-0.00031314,0.00017216,0.00010869,0.00008276,-0.00002519,-0.001022
 43,0.00036413,0.00094695,0.00032989,0.00003435,-0.00031827,0.00043111,
 0.00009649,0.00019453,-0.00944346,-0.00393646,0.00568717,0.00055354,-0
 .00010380,-0.00017915,-0.00028957,-0.00019776,0.00012446,0.00004004,0.
 00000981,-0.00003762,-0.00027574,-0.00028383,-0.00021090,0.00001334,0.
 00000897,0.00003829,-0.00000925,0.00000552,-0.00000263,0.00000808,-0.0
 0000306,0.00000091,0.00017435,0.00012730,-0.00002206,0.00011190,-0.000
 32042,-0.00013863,-0.00006842,0.00023768,0.00006426,0.00000045,0.00010
 222,0.00005288,-0.12723853,-0.18331431,0.09086750,0.14027927,0.0012496
 3,-0.00001589,0.00048312,0.00068156,-0.00009965,-0.00032923,-0.0007953
 3,-0.00026040,0.00008484,0.00000333,0.00006194,-0.00003140,-0.00043272
 ,0.00013126,0.00000491,-0.00096834,-0.00020991,0.00055482,0.00028557,-
 0.00082886,-0.00038059,0.00004160,-0.00002814,-0.00008355,0.00000618,-
 0.00038364,0.00010223,-0.00226608,0.00020680,-0.00152069,-0.00229605,0
 .00201669,0.00098139,0.00178952,-0.00477250,0.00165326,0.00003762,0.00
 007371,-0.00007098,0.00037498,-0.00015214,0.00001983,0.00068339,-0.000
 03431,-0.00051675,-0.00038222,0.00003208,0.00016102,0.00001395,0.00002
 354,-0.00001194,-0.00013433,0.00051994,0.00004183,-0.00005756,-0.00029
 951,-0.00011805,0.00135345,0.00106468,-0.00085094,-0.00033281,-0.00020
 973,0.00022009,-0.00040342,-0.00033021,-0.00016952,-0.00032947,0.00696
 984,-0.00120032,0.00052951,-0.00135366,0.00016889,0.00031581,0.0004115
 5,0.00000996,-0.00003271,-0.00002277,0.00000281,0.00024560,0.00057430,
 0.00013633,-0.00000612,-0.00002861,-0.00000833,0.00000013,-0.00000223,
 0.00000314,-0.00000183,0.00000200,-0.00000267,-0.00004126,-0.00008997,
 -0.00000720,-0.00017152,0.00009774,0.00013795,0.00011082,-0.00019523,-
 0.00006870,0.00004849,-0.00006532,-0.00004056,-0.17941357,-0.29644428,
 0.11898268,0.19606477,0.31566106,-0.00108387,0.00035404,-0.00095903,-0
 .00004343,-0.00011180,0.00010273,0.00001713,0.00020671,-0.00010575,-0.
 00001417,-0.00003929,0.00001266,-0.00123182,0.00110698,-0.00095292,-0.
 00151915,0.00129554,0.00058469,0.00106622,-0.00260579,0.00016619,-0.00
 000261,-0.00000713,-0.00004443,-0.00000589,0.00001606,-0.00003739,0.00
 094102,-0.00110839,-0.00076060,0.00139041,-0.00114575,-0.00047315,-0.0
 0100920,0.00224506,-0.00098955,0.00000146,0.00007945,0.00005069,0.0002
 7249,-0.00002853,-0.00003804,0.00065525,0.00009816,-0.00057401,-0.0002
 1797,-0.00005895,0.00022807,0.00002214,0.00002029,-0.00004733,0.000005
 79,0.00004839,-0.00001276,-0.00001663,-0.00009680,-0.00005833,0.000219
 82,-0.00000847,0.00106571,-0.00012117,-0.00006202,-0.00006590,0.000006
 13,0.00001999,-0.00009527,0.00244516,0.00122281,0.00163834,-0.00010337
 ,0.00010674,-0.00021309,0.00008854,0.00011348,0.00001284,0.00000692,-0
 .00000691,0.00000020,-0.00001309,-0.00000785,0.00002033,-0.00001300,-0
 .00000147,-0.00000815,0.00000043,0.00000095,0.00000011,0.00000067,-0.0
 0000093,-0.00000037,-0.00000176,0.00000121,0.00000062,-0.00002499,-0.0
 0000683,-0.00015913,-0.00003155,0.00008176,0.00008854,0.00006509,-0.00
 008037,0.00006257,0.12215110,0.16714486,-0.13131229,-0.10402115,-0.137
 48330,0.12089242,0.00615549,0.00099069,0.00182622,0.00492627,0.0003601
 5,-0.00235967,-0.00733821,-0.00476865,-0.00070748,0.00020072,0.0002818
 4,0.00021187,-0.00071672,0.00038346,-0.00043692,-0.00094684,0.00105888
 ,0.00067348,0.00034666,-0.00078924,0.00021821,0.00002716,0.00001503,-0
 .00005840,0.00017220,-0.00077044,0.00019450,-0.00087676,-0.00023942,-0
 .00045171,-0.00024659,-0.00000699,0.00013560,0.00005973,0.00008205,-0.
 00024662,0.00003678,-0.00000564,0.00009980,-0.00011841,0.00001533,-0.0
 0040431,-0.00008884,-0.00041571,-0.00083285,-0.00009901,-0.00024480,0.
 00038125,0.00002257,0.00013933,-0.00003208,-0.00073994,0.00155824,0.00
 127953,-0.00004128,-0.00043953,-0.00025525,0.00059171,0.00077015,0.000
 28041,-0.00015751,-0.00021771,-0.00004621,-0.00025336,-0.00040683,-0.0
 0021504,0.00149612,0.00869385,0.00879722,-0.00024087,-0.00056301,-0.00
 035808,0.00020901,0.00041621,0.00014470,0.00000098,-0.00003920,-0.0000
 3744,0.00017269,0.00084553,0.00005337,-0.00000613,-0.00006119,0.000037
 01,-0.00001457,0.00000522,0.00000280,0.00000947,-0.00000135,-0.0000047
 5,0.00010232,-0.00011075,-0.00010723,-0.00007043,-0.00012737,-0.000032
 11,0.00001854,0.00004147,0.00000332,0.00003384,0.00000574,0.00002091,-
 0.04446002,-0.07286354,-0.05497100,-0.00492832,-0.01577056,-0.01988096
 ,0.04676154,-0.00092074,-0.00284733,-0.00097144,-0.00005009,-0.0000733
 2,-0.00027788,-0.00091984,-0.00012584,0.00002885,-0.00020214,-0.000264
 72,-0.00011805,0.00004523,0.00003915,0.00017456,0.00015589,-0.00013139
 ,-0.00001950,-0.00005604,0.00006926,-0.00020042,0.00002357,0.00001001,
 0.00001505,-0.00006098,-0.00021220,0.00000637,-0.00056597,0.00181692,-
 0.00004857,-0.00115007,0.00084769,0.00021462,0.00099161,-0.00155891,0.
 00077449,0.00000419,0.00004230,-0.00007488,0.00011706,-0.00011655,0.00
 010030,-0.00010117,-0.00088148,0.00023719,-0.00012714,0.00004823,-0.00
 003949,-0.00003620,-0.00000428,0.00009263,0.00026185,0.00061019,-0.000
 01917,-0.00010096,-0.00012461,-0.00000671,0.00055288,-0.00045692,-0.00
 046886,-0.00023741,-0.00003536,0.00020722,-0.00032749,-0.00007661,-0.0
 0018043,0.00706553,-0.00228248,-0.00455500,-0.00084357,0.00022832,0.00
 002341,0.00023625,0.00018350,-0.00007857,-0.00002451,-0.00000939,0.000
 02225,0.00022789,0.00030060,0.00016420,-0.00001092,-0.00001193,-0.0000
 2326,0.00000600,-0.00000288,0.00000153,-0.00000539,0.00000149,-0.00000
 034,-0.00014164,-0.00014339,0.00001290,-0.00006348,0.00014477,0.000060
 40,0.00004355,-0.00010895,-0.00003063,0.00001050,-0.00004567,-0.000030
 58,-0.07928167,-0.19833917,-0.18309210,-0.00669331,-0.02202020,-0.0313
 0189,0.08217872,0.22553114,0.00042671,0.00023921,-0.00175000,0.0016870
 1,0.00014241,-0.00056208,-0.00202790,-0.00154515,-0.00088625,-0.000026
 42,-0.00010040,0.00011121,-0.00000616,-0.00006176,0.00000100,0.0000107
 9,-0.00042341,-0.00007825,0.00014015,0.00004890,-0.00005013,-0.0000151
 4,-0.00003254,-0.00001184,0.00001559,-0.00013635,-0.00003749,-0.000542
 37,0.00033101,-0.00105646,0.00003676,0.00013300,-0.00001373,-0.0001201
 6,-0.00004435,0.00003832,0.00001066,0.00007444,-0.00003954,-0.00079524
 ,0.00013991,-0.00025297,-0.00076754,0.00025460,0.00041475,0.00118065,0
 .00015956,-0.00028785,-0.00004025,-0.00001932,0.00000253,0.00007292,0.
 00031775,0.00063422,-0.00004063,0.00001056,-0.00001896,0.00008799,-0.0
 0027454,0.00009296,-0.00002108,0.00000785,-0.00000882,-0.00012180,-0.0
 0003637,-0.00011936,0.00402785,-0.00319024,0.00008125,-0.00049138,0.00
 029845,-0.00020482,0.00002272,-0.00000663,-0.00000494,0.00000155,-0.00
 000560,0.00000345,0.00008302,0.00016088,0.00008519,-0.00001271,-0.0000
 0197,-0.00000616,0.00000063,0.00000064,0.00000067,0.00000052,-0.000001
 15,-0.00000071,-0.00004664,-0.00004755,-0.00006046,-0.00001130,0.00003
 465,-0.00001592,0.00000619,-0.00000397,0.00001336,0.00000296,-0.000009
 18,0.00000249,-0.07808078,-0.23496075,-0.30498542,0.00827490,0.0191456
 1,0.01198081,0.06707793,0.21940179,0.29698993\\0.00001047,0.00000144,-
 0.00000235,-0.00001320,0.00001792,-0.00003082,-0.00000588,0.00000199,-
 0.00000317,0.00000015,0.00000257,-0.00000238,0.00000173,-0.00000539,0.
 00000297,0.00000384,0.00000063,-0.00000374,-0.00000432,-0.00000188,0.0
 0000576,-0.00000225,-0.00000169,0.00000347,-0.00000202,0.00000183,0.00
 000063,-0.00000710,0.00000903,0.00000206,-0.00000140,0.00000720,0.0000
 0646,0.00001025,-0.00000282,0.00000541,0.00000237,0.00000303,0.0000030
 5,-0.00000148,0.00000293,0.00000098,-0.00000233,0.00000475,0.00000365,
 0.00000156,-0.00000369,-0.00000517,-0.00000015,-0.00000228,-0.00000204
 ,0.00003732,-0.00004162,0.00005189,-0.00002199,0.00002168,-0.00003964,
 -0.00000314,0.00000105,-0.00007310,-0.00000070,0.00000241,0.00000457,-
 0.00000450,-0.00000096,0.00000555,-0.00002746,-0.00005790,-0.00004114,
 0.00001241,0.00002740,0.00006707,0.00000296,-0.00000586,0.00000512,0.0
 0000034,-0.00000137,0.00000123,0.00000557,0.00000221,-0.00000339,0.000
 00187,-0.00000003,-0.00000122,-0.00000539,-0.00001240,0.00000643,0.000
 00859,0.00001045,-0.00000758,-0.00000125,0.00000015,-0.00000242,0.0000
 0814,0.00000089,0.00003443,0.00000085,-0.00000406,0.00000718,-0.000010
 63,0.00000386,-0.00000428,0.00000327,0.00002367,0.00001633,0.00000972,
 0.00000623,-0.00000585,-0.00000619,-0.00001139,-0.00000593\\\@
 The archive entry for this job was punched.


 I DO NOT KNOW WHAT I MAY APPEAR TO THE WORLD; BUT TO MYSELF
 I SEEM TO HAVE BEEN ONLY LIKE A BOY PLAYING ON THE SEASHORE,
 AND DIVERTING MYSELF IN NOW AND THEN FINDING A SMOOTHER PEBBLE
 OR A PRETTIER SHELL THAN ORDINARY, WHILST THE GREAT OCEAN OF
 TRUTH LAY ALL UNDISCOVERED BEFORE ME.
                                          -- NEWTON (1642-1726)
 Job cpu time:       1 days  6 hours  9 minutes  0.6 seconds.
 Elapsed time:       0 days 15 hours 12 minutes 58.6 seconds.
 File lengths (MBytes):  RWF=   6221 Int=      0 D2E=      0 Chk=    156 Scr=      1
 Normal termination of Gaussian 16 at Sun Feb  5 12:59:16 2023.
