 Entering Gaussian System, Link 0=g16
 Input=FeFeFe-B-2xH2O-opt.gjf
 Output=FeFeFe-B-2xH2O-opt.log
 AtFile(1): /zfs/curium/svicchi/00-MOF/01-Gaussian/zw-basis-set/def2-TZVP/H.gbs
            !----------------------------------------------------------------------
            ! Basis Set Exchange
            ! Version v0.9
            ! https://www.basissetexchange.org
            !----------------------------------------------------------------------
            !   Basis set: def2-TZVP
            ! Description: def2-TZVP
            !        Role: orbital
            !     Version: 1  (Data from Turbomole 7.3)
            !----------------------------------------------------------------------
            H     0
            S    3   1.00
                 34.0613410              0.60251978D-02
                  5.1235746              0.45021094D-01
                  1.1646626              0.20189726
            S    1   1.00
                  0.32723041             1.0000000
            S    1   1.00
                  0.10307241             1.0000000
            P    1   1.00
                  0.8000000              1.0000000
 AtFile(1): /zfs/curium/svicchi/00-MOF/01-Gaussian/zw-basis-set/def2-TZVP/O.gbs
            !----------------------------------------------------------------------
            ! Basis Set Exchange
            ! Version v0.9
            ! https://www.basissetexchange.org
            !----------------------------------------------------------------------
            !   Basis set: def2-TZVP
            ! Description: def2-TZVP
            !        Role: orbital
            !     Version: 1  (Data from Turbomole 7.3)
            !----------------------------------------------------------------------
            O     0
            S    6   1.00
              27032.3826310              0.21726302465D-03
               4052.3871392              0.16838662199D-02
                922.32722710             0.87395616265D-02
                261.24070989             0.35239968808D-01
                 85.354641351            0.11153519115
                 31.035035245            0.25588953961
            S    2   1.00
                 12.260860728            0.39768730901
                  4.9987076005           0.24627849430
            S    1   1.00
                  1.1703108158           1.0000000
            S    1   1.00
                  0.46474740994          1.0000000
            S    1   1.00
                  0.18504536357          1.0000000
            P    4   1.00
                 63.274954801            0.60685103418D-02
                 14.627049379            0.41912575824D-01
                  4.4501223456           0.16153841088
                  1.5275799647           0.35706951311
            P    1   1.00
                  0.52935117943           .44794207502
            P    1   1.00
                  0.17478421270           .24446069663
            D    1   1.00
                  2.31400000             1.0000000
            D    1   1.00
                  0.64500000             1.0000000
            F    1   1.00
                  1.42800000             1.0000000
 AtFile(1): /zfs/curium/svicchi/00-MOF/01-Gaussian/zw-basis-set/def2-TZVP/C.gbs
            !----------------------------------------------------------------------
            ! Basis Set Exchange
            ! Version v0.9
            ! https://www.basissetexchange.org
            !----------------------------------------------------------------------
            !   Basis set: def2-TZVP
            ! Description: def2-TZVP
            !        Role: orbital
            !     Version: 1  (Data from Turbomole 7.3)
            !----------------------------------------------------------------------
            C     0
            S    6   1.00
              13575.3496820              0.22245814352D-03
               2035.2333680              0.17232738252D-02
                463.22562359             0.89255715314D-02
                131.20019598             0.35727984502D-01
                 42.853015891            0.11076259931
                 15.584185766            0.24295627626
            S    2   1.00
                  6.2067138508           0.41440263448
                  2.5764896527           0.23744968655
            S    1   1.00
                  0.57696339419          1.0000000
            S    1   1.00
                  0.22972831358          1.0000000
            S    1   1.00
                  0.95164440028D-01      1.0000000
            P    4   1.00
                 34.697232244            0.53333657805D-02
                  7.9582622826           0.35864109092D-01
                  2.3780826883           0.14215873329
                  0.81433208183          0.34270471845
            P    1   1.00
                  0.28887547253           .46445822433
            P    1   1.00
                  0.10056823671           .24955789874
            D    1   1.00
                  1.09700000             1.0000000
            D    1   1.00
                  0.31800000             1.0000000
            F    1   1.00
                  0.76100000             1.0000000
 AtFile(1): /zfs/curium/svicchi/00-MOF/01-Gaussian/zw-basis-set/def2-TZVP/Fe.gbs
            !----------------------------------------------------------------------
            ! Basis Set Exchange
            ! Version v0.9
            ! https://www.basissetexchange.org
            !----------------------------------------------------------------------
            !   Basis set: def2-TZVP
            ! Description: def2-TZVP
            !        Role: orbital
            !     Version: 1  (Data from Turbomole 7.3)
            !----------------------------------------------------------------------
            Fe     0
            S    8   1.00
             300784.8463700              0.22806273096D-03
              45088.9705570              0.17681788761D-02
              10262.5163170              0.91927083490D-02
               2905.2897293              0.37355495807D-01
                946.11487137             0.12151108426
                339.87832894             0.28818881468
                131.94425588             0.41126612677
                 52.111494077            0.21518583573
            S    4   1.00
                329.48839267            -0.24745216477D-01
                101.92332739            -0.11683089050
                 16.240462745            0.55293621136
                  6.8840675801           0.53601640182
            S    2   1.00
                 10.470693782           -0.22912708577
                  1.7360039648           0.71159319984
            S    1   1.00
                  0.72577288979          1.0000000
            S    1   1.00
                  0.11595528203          1.0000000
            S    1   1.00
                  0.41968227746D-01      1.0000000
            P    6   1.00
               1585.3959970              0.23793960179D-02
                375.38006499             0.19253154755D-01
                120.31816501             0.90021836536D-01
                 44.788749031            0.25798172356
                 17.829278584            0.41492649744
                  7.2247153786           0.24207474784
            P    3   1.00
                 28.143219756           -0.29041755152D-01
                  3.8743241412           0.55312260343
                  1.5410752281           0.96771136842
            P    1   1.00
                  0.58285615250          1.0000000
            P    1   1.00
                  0.1349150              1.0000000
            D    4   1.00
                 61.996675034            0.11971972255D-01
                 17.873732552            0.73210135410D-01
                  6.2744782934           0.23103094314
                  2.3552337175           0.39910706494
            D    1   1.00
                  0.85432239901           .41391589765
            D    1   1.00
                  0.27869254413           .21909269782
            D    1   1.00
                  0.0910000              1.0000000
            F    1   1.00
                  1.5980000              1.0000000
 AtFile(1): /zfs/curium/svicchi/00-MOF/01-Gaussian/zw-basis-set/def2-TZVP/N.gbs
            !----------------------------------------------------------------------
            ! Basis Set Exchange
            ! Version v0.9
            ! https://www.basissetexchange.org
            !----------------------------------------------------------------------
            !   Basis set: def2-TZVP
            ! Description: def2-TZVP
            !        Role: orbital
            !     Version: 1  (Data from Turbomole 7.3)
            !----------------------------------------------------------------------
            N     0
            S    6   1.00
              19730.8006470              0.21887984991D-03
               2957.8958745              0.16960708803D-02
                673.22133595             0.87954603538D-02
                190.68249494             0.35359382605D-01
                 62.295441898            0.11095789217
                 22.654161182            0.24982972552
            S    2   1.00
                  8.9791477428           0.40623896148
                  3.6863002370           0.24338217176
            S    1   1.00
                  0.84660076805          1.0000000
            S    1   1.00
                  0.33647133771          1.0000000
            S    1   1.00
                  0.13647653675          1.0000000
            P    4   1.00
                 49.200380510            0.55552416751D-02
                 11.346790537            0.38052379723D-01
                  3.4273972411           0.14953671029
                  1.1785525134           0.34949305230
            P    1   1.00
                  0.41642204972           .45843153697
            P    1   1.00
                  0.14260826011           .24428771672
            D    1   1.00
                  1.65400000             1.0000000
            D    1   1.00
                  0.46900000             1.0000000
            F    1   1.00
                  1.09300000             1.0000000
 Initial command:
 /software/commercial/gaussian/g16/AVX2/g16/l1.exe "/scratch1/svicchi/G09-93351.pbs02/Gau-3778224.inp" -scrdir="/scratch1/svicchi/G09-93351.pbs02/"
 Entering Link 1 = /software/commercial/gaussian/g16/AVX2/g16/l1.exe PID=   3778225.
  
 Copyright (c) 1988-2021, Gaussian, Inc.  All Rights Reserved.
  
 This is part of the Gaussian(R) 16 program.  It is based on
 the Gaussian(R) 09 system (copyright 2009, Gaussian, Inc.),
 the Gaussian(R) 03 system (copyright 2003, Gaussian, Inc.),
 the Gaussian(R) 98 system (copyright 1998, Gaussian, Inc.),
 the Gaussian(R) 94 system (copyright 1995, Gaussian, Inc.),
 the Gaussian 92(TM) system (copyright 1992, Gaussian, Inc.),
 the Gaussian 90(TM) system (copyright 1990, Gaussian, Inc.),
 the Gaussian 88(TM) system (copyright 1988, Gaussian, Inc.),
 the Gaussian 86(TM) system (copyright 1986, Carnegie Mellon
 University), and the Gaussian 82(TM) system (copyright 1983,
 Carnegie Mellon University). Gaussian is a federally registered
 trademark of Gaussian, Inc.
  
 This software contains proprietary and confidential information,
 including trade secrets, belonging to Gaussian, Inc.
  
 This software is provided under written license and may be
 used, copied, transmitted, or stored only in accord with that
 written license.
  
 The following legend is applicable only to US Government
 contracts under FAR:
  
                    RESTRICTED RIGHTS LEGEND
  
 Use, reproduction and disclosure by the US Government is
 subject to restrictions as set forth in subparagraphs (a)
 and (c) of the Commercial Computer Software - Restricted
 Rights clause in FAR 52.227-19.
  
 Gaussian, Inc.
 340 Quinnipiac St., Bldg. 40, Wallingford CT 06492
  
  
 ---------------------------------------------------------------
 Warning -- This program may not be used in any manner that
 competes with the business of Gaussian, Inc. or will provide
 assistance to any competitor of Gaussian, Inc.  The licensee
 of this program is prohibited from giving any competitor of
 Gaussian, Inc. access to this program.  By using this program,
 the user acknowledges that Gaussian, Inc. is engaged in the
 business of creating and licensing software in the field of
 computational chemistry and represents and warrants to the
 licensee that it is not a competitor of Gaussian, Inc. and that
 it will not use this program in any manner prohibited above.
 ---------------------------------------------------------------
  

 Cite this work as:
 Gaussian 16, Revision C.02,
 M. J. Frisch, G. W. Trucks, H. B. Schlegel, G. E. Scuseria, 
 M. A. Robb, J. R. Cheeseman, G. Scalmani, V. Barone, 
 G. A. Petersson, H. Nakatsuji, X. Li, M. Caricato, A. V. Marenich, 
 J. Bloino, B. G. Janesko, R. Gomperts, B. Mennucci, H. P. Hratchian, 
 J. V. Ortiz, A. F. Izmaylov, J. L. Sonnenberg, D. Williams-Young, 
 F. Ding, F. Lipparini, F. Egidi, J. Goings, B. Peng, A. Petrone, 
 T. Henderson, D. Ranasinghe, V. G. Zakrzewski, J. Gao, N. Rega, 
 G. Zheng, W. Liang, M. Hada, M. Ehara, K. Toyota, R. Fukuda, 
 J. Hasegawa, M. Ishida, T. Nakajima, Y. Honda, O. Kitao, H. Nakai, 
 T. Vreven, K. Throssell, J. A. Montgomery, Jr., J. E. Peralta, 
 F. Ogliaro, M. J. Bearpark, J. J. Heyd, E. N. Brothers, K. N. Kudin, 
 V. N. Staroverov, T. A. Keith, R. Kobayashi, J. Normand, 
 K. Raghavachari, A. P. Rendell, J. C. Burant, S. S. Iyengar, 
 J. Tomasi, M. Cossi, J. M. Millam, M. Klene, C. Adamo, R. Cammi, 
 J. W. Ochterski, R. L. Martin, K. Morokuma, O. Farkas, 
 J. B. Foresman, and D. J. Fox, Gaussian, Inc., Wallingford CT, 2019.
 
 ******************************************
 Gaussian 16:  ES64L-G16RevC.02  7-Dec-2021
                 3-Feb-2023 
 ******************************************
 %NProcShared=2
 Will use up to    2 processors via shared memory.
 %mem=110gb
 %chk=/scratch1/svicchi/G09-93351.pbs02/00-opt/FeFeFe-B-2xH2O-opt.chk
 ----------------------------------------------------------------------
 #p opt=(cartesian,maxcycle=500) gen um06l int=grid=ultrafine scf=(xqc,
 intrep,maxconventionalcycle=150) pop=(hirshfeld) nosymm
 ----------------------------------------------------------------------
 1/6=500,10=7,18=10,26=4,38=1/1,3;
 2/12=2,15=1,17=6,18=5,29=2,40=1/2;
 3/5=7,11=2,25=1,30=1,71=1,74=-53,75=-5,116=2/1,2,3;
 4//1;
 5/5=2,8=3,13=1,17=20,38=5,85=150/2,8;
 6/7=2,8=2,9=2,10=2,28=1,79=1/1;
 7/7=1,29=1,30=1/1,2,3,16;
 1/6=500,10=7,18=10,26=4/3(2);
 2/15=1,29=1/2;
 99/12=1/99;
 2/15=1,29=1/2;
 3/5=7,6=1,11=2,25=1,30=1,71=1,74=-53,75=-5,82=7,116=2/1,2,3;
 4/5=5,16=3,69=1/1;
 5/5=2,8=3,13=1,17=20,38=5,85=150/2,8;
 7/7=1,30=1/1,2,3,16;
 1/6=500,18=10,26=4/3(-5);
 2/15=1,29=1/2;
 6/7=2,8=2,9=2,10=2,19=2,28=1,79=1/1;
 99/9=1,12=1/99;
 Leave Link    1 at Fri Feb  3 08:20:26 2023, MaxMem= 14763950080 cpu:               0.0 elap:               1.9
 (Enter /software/commercial/gaussian/g16/AVX2/g16/l101.exe)
 --------------
 FeFeFe-B-2xH2O
 --------------
 Symbolic Z-matrix:
 Charge =  0 Multiplicity =15
 O                     1.65852  -2.10754  -1.58701 
 O                    -0.52453  -2.50776  -1.18388 
 C                     0.54034  -2.66591  -1.79356 
 H                     0.53146  -3.39211  -2.62632 
 O                     1.86918   2.23798   1.17031 
 O                     2.94256   0.27296   1.38486 
 C                     2.73762   1.47742   1.65549 
 H                     3.4092    1.92251   2.41065 
 O                    -2.10824  -0.12712  -1.4916 
 O                     2.80763   0.48676  -1.43347 
 O                     1.37488   2.20801  -1.63269 
 C                     2.38067   1.53748  -1.9602 
 H                     2.96244   1.92481  -2.81603 
 O                    -0.59039  -2.10507   1.77058 
 O                     1.60576  -2.28421   1.28253 
 C                     0.57013  -2.49567   1.97353 
 H                     0.7251   -3.1163    2.8732 
 Fe                   -1.39745  -1.1419    0.14689 
 O                    -2.20285   0.27229   1.46611 
 Fe                    0.14685   1.85882   0.02518 
 O                    -0.9003    2.0991    1.70159 
 O                    -1.4311    2.00011  -1.16364 
 Fe                    1.97894  -0.84639  -0.02715 
 O                     0.28595  -0.02373   0.04228 
 C                    -1.83904   1.31768   2.02636 
 H                    -2.40654   1.62118   2.92402 
 C                    -2.0733    1.08569  -1.75286 
 H                    -2.68517   1.41827  -2.60893 
 N                    -5.5071   -0.05098   0.5261 
 N                    -4.96743   0.63263  -0.13709 
 O                    -2.7458   -2.03268   0.23034 
 O                     0.24142   4.06721  -0.01304 
 H                     0.69812   4.24041  -0.84676 
 H                     0.89432   4.24473   0.67717 
 O                     3.9948   -1.72151  -0.34633 
 H                     4.49262  -0.9856   -0.72519 
 H                     3.7886   -2.29222  -1.10066 
 
 ITRead=  0  0  0  0  0  0  0  0  0  0  0  0  0  0  0  0  0  0  0  0
 ITRead=  0  0  0  0  0  0  0  0  0  0  0  0  0  0  0  0  0
 MicOpt= -1 -1 -1 -1 -1 -1 -1 -1 -1 -1 -1 -1 -1 -1 -1 -1 -1 -1 -1 -1
 MicOpt= -1 -1 -1 -1 -1 -1 -1 -1 -1 -1 -1 -1 -1 -1 -1 -1 -1
 NAtoms=     37 NQM=       37 NQMF=       0 NMMI=      0 NMMIF=      0
                NMic=       0 NMicF=      0.
                    Isotopes and Nuclear Properties:
 (Nuclear quadrupole moments (NQMom) in fm**2, nuclear magnetic moments (NMagM)
  in nuclear magnetons)

  Atom         1           2           3           4           5           6           7           8           9          10
 IAtWgt=          16          16          12           1          16          16          12           1          16          16
 AtmWgt=  15.9949146  15.9949146  12.0000000   1.0078250  15.9949146  15.9949146  12.0000000   1.0078250  15.9949146  15.9949146
 NucSpn=           0           0           0           1           0           0           0           1           0           0
 AtZEff=  -0.0000000  -0.0000000  -0.0000000  -0.0000000  -0.0000000  -0.0000000  -0.0000000  -0.0000000  -0.0000000  -0.0000000
 NQMom=    0.0000000   0.0000000   0.0000000   0.0000000   0.0000000   0.0000000   0.0000000   0.0000000   0.0000000   0.0000000
 NMagM=    0.0000000   0.0000000   0.0000000   2.7928460   0.0000000   0.0000000   0.0000000   2.7928460   0.0000000   0.0000000
 AtZNuc=   8.0000000   8.0000000   6.0000000   1.0000000   8.0000000   8.0000000   6.0000000   1.0000000   8.0000000   8.0000000

  Atom        11          12          13          14          15          16          17          18          19          20
 IAtWgt=          16          12           1          16          16          12           1          56          16          56
 AtmWgt=  15.9949146  12.0000000   1.0078250  15.9949146  15.9949146  12.0000000   1.0078250  55.9349393  15.9949146  55.9349393
 NucSpn=           0           0           1           0           0           0           1           0           0           0
 AtZEff=  -0.0000000  -0.0000000  -0.0000000  -0.0000000  -0.0000000  -0.0000000  -0.0000000  -0.0000000  -0.0000000  -0.0000000
 NQMom=    0.0000000   0.0000000   0.0000000   0.0000000   0.0000000   0.0000000   0.0000000   0.0000000   0.0000000   0.0000000
 NMagM=    0.0000000   0.0000000   2.7928460   0.0000000   0.0000000   0.0000000   2.7928460   0.0000000   0.0000000   0.0000000
 AtZNuc=   8.0000000   6.0000000   1.0000000   8.0000000   8.0000000   6.0000000   1.0000000  26.0000000   8.0000000  26.0000000

  Atom        21          22          23          24          25          26          27          28          29          30
 IAtWgt=          16          16          56          16          12           1          12           1          14          14
 AtmWgt=  15.9949146  15.9949146  55.9349393  15.9949146  12.0000000   1.0078250  12.0000000   1.0078250  14.0030740  14.0030740
 NucSpn=           0           0           0           0           0           1           0           1           2           2
 AtZEff=  -0.0000000  -0.0000000  -0.0000000  -0.0000000  -0.0000000  -0.0000000  -0.0000000  -0.0000000  -0.0000000  -0.0000000
 NQMom=    0.0000000   0.0000000   0.0000000   0.0000000   0.0000000   0.0000000   0.0000000   0.0000000   2.0440000   2.0440000
 NMagM=    0.0000000   0.0000000   0.0000000   0.0000000   0.0000000   2.7928460   0.0000000   2.7928460   0.4037610   0.4037610
 AtZNuc=   8.0000000   8.0000000  26.0000000   8.0000000   6.0000000   1.0000000   6.0000000   1.0000000   7.0000000   7.0000000

  Atom        31          32          33          34          35          36          37
 IAtWgt=          16          16           1           1          16           1           1
 AtmWgt=  15.9949146  15.9949146   1.0078250   1.0078250  15.9949146   1.0078250   1.0078250
 NucSpn=           0           0           1           1           0           1           1
 AtZEff=  -0.0000000  -0.0000000  -0.0000000  -0.0000000  -0.0000000  -0.0000000  -0.0000000
 NQMom=    0.0000000   0.0000000   0.0000000   0.0000000   0.0000000   0.0000000   0.0000000
 NMagM=    0.0000000   0.0000000   2.7928460   2.7928460   0.0000000   2.7928460   2.7928460
 AtZNuc=   8.0000000   8.0000000   1.0000000   1.0000000   8.0000000   1.0000000   1.0000000
 Leave Link  101 at Fri Feb  3 08:20:27 2023, MaxMem= 14763950080 cpu:               0.1 elap:               0.5
 (Enter /software/commercial/gaussian/g16/AVX2/g16/l103.exe)

 GradGradGradGradGradGradGradGradGradGradGradGradGradGradGradGradGradGrad
 Berny optimization.
 Initialization pass.
 No Z-matrix variables, so optimization will use Cartesian coordinates.
 Trust Radius=3.00D-01 FncErr=1.00D-07 GrdErr=1.00D-06 EigMax=2.50D+02 EigMin=1.00D-04
 Number of steps in this run=    222 maximum allowed number of steps=    222.
 GradGradGradGradGradGradGradGradGradGradGradGradGradGradGradGradGradGrad

 Leave Link  103 at Fri Feb  3 08:20:29 2023, MaxMem= 14763950080 cpu:               0.1 elap:               0.8
 (Enter /software/commercial/gaussian/g16/AVX2/g16/l202.exe)
 ---------------------------------------------------------------------------------------------------
                            Z-MATRIX (ANGSTROMS AND DEGREES)
   CD    Cent   Atom    N1       Length/X        N2       Alpha/Y        N3        Beta/Z          J
 ---------------------------------------------------------------------------------------------------
      1      1  O        0   1.658522         -2.107542         -1.587006
      2      2  O        0  -0.524530         -2.507758         -1.183876
      3      3  C        0   0.540339         -2.665905         -1.793555
      4      4  H        0   0.531459         -3.392114         -2.626324
      5      5  O        0   1.869182          2.237984          1.170308
      6      6  O        0   2.942564          0.272958          1.384860
      7      7  C        0   2.737617          1.477419          1.655490
      8      8  H        0   3.409198          1.922513          2.410653
      9      9  O        0  -2.108237         -0.127117         -1.491595
     10     10  O        0   2.807627          0.486764         -1.433470
     11     11  O        0   1.374878          2.208010         -1.632685
     12     12  C        0   2.380673          1.537477         -1.960204
     13     13  H        0   2.962444          1.924805         -2.816026
     14     14  O        0  -0.590393         -2.105065          1.770581
     15     15  O        0   1.605757         -2.284207          1.282525
     16     16  C        0   0.570126         -2.495666          1.973527
     17     17  H        0   0.725096         -3.116304          2.873204
     18     18  Fe       0  -1.397448         -1.141899          0.146889
     19     19  O        0  -2.202854          0.272290          1.466111
     20     20  Fe       0   0.146853          1.858820          0.025179
     21     21  O        0  -0.900300          2.099099          1.701594
     22     22  O        0  -1.431100          2.000114         -1.163637
     23     23  Fe       0   1.978942         -0.846393         -0.027154
     24     24  O        0   0.285949         -0.023731          0.042278
     25     25  C        0  -1.839041          1.317683          2.026359
     26     26  H        0  -2.406541          1.621179          2.924024
     27     27  C        0  -2.073303          1.085689         -1.752857
     28     28  H        0  -2.685167          1.418274         -2.608931
     29     29  N        0  -5.507095         -0.050982          0.526104
     30     30  N        0  -4.967429          0.632626         -0.137092
     31     31  O        0  -2.745803         -2.032683          0.230344
     32     32  O        0   0.241420          4.067208         -0.013041
     33     33  H        0   0.698117          4.240407         -0.846760
     34     34  H        0   0.894321          4.244728          0.677171
     35     35  O        0   3.994803         -1.721510         -0.346330
     36     36  H        0   4.492622         -0.985595         -0.725185
     37     37  H        0   3.788602         -2.292215         -1.100662
 ---------------------------------------------------------------------------------------------------
                         Z-Matrix orientation:                         
 ---------------------------------------------------------------------
 Center     Atomic      Atomic             Coordinates (Angstroms)
 Number     Number       Type             X           Y           Z
 ---------------------------------------------------------------------
      1          8           0        1.658522   -2.107542   -1.587006
      2          8           0       -0.524530   -2.507758   -1.183876
      3          6           0        0.540339   -2.665905   -1.793555
      4          1           0        0.531459   -3.392114   -2.626324
      5          8           0        1.869182    2.237984    1.170308
      6          8           0        2.942564    0.272958    1.384860
      7          6           0        2.737617    1.477419    1.655490
      8          1           0        3.409198    1.922513    2.410653
      9          8           0       -2.108237   -0.127117   -1.491595
     10          8           0        2.807627    0.486764   -1.433470
     11          8           0        1.374878    2.208010   -1.632685
     12          6           0        2.380673    1.537477   -1.960204
     13          1           0        2.962444    1.924805   -2.816026
     14          8           0       -0.590393   -2.105065    1.770581
     15          8           0        1.605757   -2.284207    1.282525
     16          6           0        0.570126   -2.495666    1.973527
     17          1           0        0.725096   -3.116304    2.873204
     18         26           0       -1.397448   -1.141899    0.146889
     19          8           0       -2.202854    0.272290    1.466111
     20         26           0        0.146853    1.858820    0.025179
     21          8           0       -0.900300    2.099099    1.701594
     22          8           0       -1.431100    2.000114   -1.163637
     23         26           0        1.978942   -0.846393   -0.027154
     24          8           0        0.285949   -0.023731    0.042278
     25          6           0       -1.839041    1.317683    2.026359
     26          1           0       -2.406541    1.621179    2.924024
     27          6           0       -2.073303    1.085689   -1.752857
     28          1           0       -2.685167    1.418274   -2.608931
     29          7           0       -5.507095   -0.050982    0.526104
     30          7           0       -4.967429    0.632626   -0.137092
     31          8           0       -2.745803   -2.032683    0.230344
     32          8           0        0.241420    4.067208   -0.013041
     33          1           0        0.698117    4.240407   -0.846760
     34          1           0        0.894321    4.244728    0.677171
     35          8           0        3.994803   -1.721510   -0.346330
     36          1           0        4.492622   -0.985595   -0.725185
     37          1           0        3.788602   -2.292215   -1.100662
 ---------------------------------------------------------------------
                    Distance matrix (angstroms):
                    1          2          3          4          5
     1  O    0.000000
     2  O    2.255749   0.000000
     3  C    1.266793   1.237200   0.000000
     4  H    2.000145   1.994456   1.104972   0.000000
     5  O    5.150801   5.813270   5.882043   6.921121   0.000000
     6  O    4.018399   5.133374   4.950750   5.944390   2.249335
     7  C    4.952794   5.880922   5.821604   6.849337   1.252214
     8  H    5.940327   6.929802   6.852685   7.867514   2.002405
     9  O    4.256719   2.875808   3.681247   4.349231   5.338473
    10  O    2.841556   4.486951   3.899946   4.652906   3.275227
    11  O    4.325105   5.103690   4.947462   5.749788   2.846402
    12  C    3.734561   5.040517   4.591625   5.306993   3.248452
    13  H    4.412542   5.871160   5.290242   5.849385   4.145378
    14  O    4.041165   2.982502   3.781027   4.716760   5.027118
    15  O    2.875448   3.266685   3.277663   4.202461   4.531247
    16  C    3.743346   3.341798   3.771044   4.686549   4.973947
    17  H    4.667157   4.288565   4.692082   5.509843   5.733863
    18  Fe   3.643873   2.097258   3.137345   4.058924   4.810599
    19  O    5.467664   4.191404   5.175280   6.136151   4.531328
    20  Fe   4.540519   4.580346   4.892419   5.894972   2.102737
    21  O    5.921004   5.448878   6.082497   7.136822   2.823399
    22  O    5.157310   4.598172   5.104420   5.921758   4.049166
    23  Fe   2.031331   3.219551   2.915540   3.915557   3.310490
    24  O    2.980066   2.886299   3.227395   4.304383   2.982354
    25  C    6.084531   5.164063   6.010172   7.031992   3.915443
    26  H    7.125833   6.120860   7.022730   8.035628   4.662379
    27  C    4.914341   3.954150   4.572443   5.253423   5.041415
    28  H    5.687121   4.702431   5.267755   5.786780   5.974669
    29  N    7.748596   5.812550   6.984991   7.587167   7.750086
    30  N    7.315326   5.540498   6.630210   7.254831   7.143229
    31  O    4.765128   2.675774   3.910993   4.555113   6.357689
    32  O    6.527870   6.722181   6.970968   7.909163   2.719556
    33  H    6.462724   6.866312   6.972694   7.839005   3.074029
    34  H    6.786887   7.146517   7.347560   8.328632   2.284854
    35  O    2.673295   4.663051   3.862598   4.470351   4.743000
    36  H    3.167590   5.263002   4.425539   5.009638   4.568018
    37  H    2.192687   4.319316   3.342298   3.761170   5.418873
                    6          7          8          9         10
     6  O    0.000000
     7  C    1.251387   0.000000
     8  H    1.997756   1.104265   0.000000
     9  O    5.826203   5.996748   7.061913   0.000000
    10  O    2.829648   3.244684   4.147354   4.954387   0.000000
    11  O    3.912498   3.633582   4.535256   4.195809   2.248365
    12  C    3.619970   3.633767   4.506718   4.810487   1.250494
    13  H    4.514027   4.499462   5.245738   5.628171   2.000848
    14  O    4.276162   4.891123   5.712075   4.105840   5.341354
    15  O    2.887320   3.945889   4.713976   5.112977   4.061945
    16  C    3.693274   4.537022   5.269888   4.979028   5.050636
    17  H    4.315024   5.160946   5.727830   6.001207   5.988863
    18  Fe   4.729704   5.122057   6.133441   2.054175   4.778361
    19  O    5.146060   5.088856   5.925413   2.986051   5.792969
    20  Fe   3.489941   3.084710   4.041960   3.366004   3.330152
    21  O    4.266464   3.690942   4.371009   4.075734   5.116344
    22  O    5.348536   5.059534   6.017479   2.256365   4.508863
    23  Fe   2.043354   2.967656   3.956687   4.400793   2.107546
    24  O    2.991347   3.296450   4.376271   2.845274   2.966024
    25  C    4.936266   4.594438   5.296934   3.812599   5.852552
    26  H    5.727098   5.300208   5.846125   4.758489   6.889281
    27  C    5.971995   5.908911   6.934905   1.241119   4.927900
    28  H    6.995246   6.898940   7.911496   1.992366   5.693874
    29  N    8.499361   8.460898   9.324510   3.953371   8.559422
    30  N    8.063107   7.955800   8.850011   3.253747   7.883741
    31  O    6.245511   6.664814   7.634223   2.646270   6.321113
    32  O    4.862781   3.965098   4.528667   5.029848   4.628457
    33  H    5.075266   4.249108   4.830459   5.231319   4.345584
    34  H    4.524498   3.465955   3.836958   5.729915   4.715701
    35  O    2.842908   3.977555   4.606820   6.410992   2.732716
    36  H    2.904983   3.848908   4.411845   6.700426   2.347066
    37  H    3.670656   4.786552   5.498837   6.293901   2.965771
                   11         12         13         14         15
    11  O    0.000000
    12  C    1.252400   0.000000
    13  H    2.000217   1.104949   0.000000
    14  O    5.834991   6.001175   7.063955   0.000000
    15  O    5.360202   5.071593   6.029469   2.256849   0.000000
    16  C    5.981384   5.917648   6.942879   1.241193   1.262826
    17  H    7.005253   6.910893   7.923752   1.992208   1.999552
    18  Fe   4.698358   5.088526   6.098541   2.053144   3.407899
    19  O    5.113679   5.860806   6.909979   2.888693   4.590741
    20  Fe   2.092485   3.005821   4.000544   4.393443   4.568806
    21  O    4.038033   4.948633   5.946433   4.216135   5.066489
    22  O    2.852497   3.921500   4.694602   5.115556   5.793239
    23  Fe   3.503142   3.095304   4.052730   3.378992   1.980362
    24  O    2.995319   3.291682   4.373822   2.843758   2.896525
    25  C    4.950814   5.809215   6.846280   3.652362   5.039200
    26  H    5.950386   6.839598   7.865517   4.302757   5.834817
    27  C    3.628222   4.481630   5.214709   4.979412   5.839968
    28  H    4.249789   5.108600   5.674061   5.998510   6.874869
    29  N    7.558106   8.421509   9.317009   5.471923   7.493473
    30  N    6.703991   7.624769   8.469315   5.503872   7.330075
    31  O    6.199546   6.620068   7.584601   2.650163   4.484019
    32  O    2.713778   3.842836   4.455400   6.478439   6.624227
    33  H    2.281736   3.372919   3.790409   6.983964   6.923023
    34  H    3.116824   4.061305   4.675639   6.612094   6.595422
    35  O    4.894879   3.978819   4.523359   5.064825   2.945732
    36  H    4.554448   3.514469   3.896600   5.772270   3.748504
    37  H    5.134310   4.169846   4.626907   5.239719   3.231788
                   16         17         18         19         20
    16  C    0.000000
    17  H    1.103914   0.000000
    18  Fe   3.006766   3.979480   0.000000
    19  O    3.950756   4.694185   2.094984   0.000000
    20  Fe   4.789235   5.761725   3.376980   3.180328   0.000000
    21  O    4.831973   5.587040   3.628820   2.255954   1.991138
    22  O    5.835987   6.864619   3.404535   3.239839   1.980703
    23  Fe   2.950862   3.890592   3.393763   4.579160   3.267639
    24  O    3.149753   4.215566   2.023628   2.882546   1.887760
    25  C    4.510932   5.191549   3.126812   1.240598   2.870771
    26  H    5.168404   5.679215   4.045411   1.996622   3.870348
    27  C    5.805149   6.847498   3.004657   3.322673   2.947581
    28  H    6.849436   7.889619   3.975833   4.260501   3.892679
    29  N    6.708512   7.331117   4.268853   3.450526   5.988773
    30  N    6.701152   7.451255   3.996792   3.216050   5.261726
    31  O    3.774709   4.495118   1.618185   2.671107   4.853179
    32  O    6.864824   7.756752   5.463173   4.750134   2.210742
    33  H    7.303772   8.243789   5.860712   5.432399   2.595405
    34  H    6.871576   7.683488   5.877853   5.098547   2.583865
    35  O    4.208262   4.796023   5.445694   6.758042   5.269108
    36  H    4.994931   5.628728   5.956330   7.156357   5.247804
    37  H    4.455403   5.084860   5.456622   7.004467   5.635685
                   21         22         23         24         25
    21  O    0.000000
    22  O    2.915664   0.000000
    23  Fe   4.467049   4.585039   0.000000
    24  O    2.943964   2.915208   1.883565   0.000000
    25  C    1.263850   3.287583   4.845321   3.201804   0.000000
    26  H    1.997875   4.219484   5.833594   4.273136   1.104522
    27  C    3.786313   1.263241   4.809541   3.165342   3.793570
    28  H    4.714859   2.000024   5.792081   4.235070   4.712957
    29  N    5.217968   4.865794   7.548478   5.813277   4.192688
    30  N    4.698175   3.928033   7.102933   5.297260   3.864794
    31  O    4.758370   4.464872   4.878197   3.641810   3.908048
    32  O    2.849026   2.897252   5.211781   4.091555   4.005915
    33  H    3.692458   3.106910   5.309218   4.375288   4.820197
    34  H    2.978898   3.719469   5.252808   4.358090   4.226011
    35  O    6.538584   6.630151   2.220675   4.097446   6.992859
    36  H    6.669948   6.648096   2.612511   4.382953   7.277777
    37  H    7.008715   6.758206   2.552977   4.326767   7.381056
                   26         27         28         29         30
    26  H    0.000000
    27  C    4.719217   0.000000
    28  H    5.543681   1.103564   0.000000
    29  N    4.261406   4.275115   4.466591   0.000000
    30  N    4.111668   3.345434   3.454845   1.094709   0.000000
    31  O    4.552111   3.756273   4.469258   3.411649   3.489198
    32  O    4.649850   4.156243   4.724448   7.091938   6.240501
    33  H    5.542388   4.295815   4.745133   7.668470   6.754119
    34  H    4.777766   4.969040   5.621392   7.710647   6.933283
    35  O    7.927546   6.832320   7.720078   9.686995   9.268621
    36  H    8.228636   6.961156   7.800496  10.120947   9.615459
    37  H    8.360176   6.796876   7.612640   9.699457   9.281769
                   31         32         33         34         35
    31  O    0.000000
    32  O    6.796426   0.000000
    33  H    7.236878   0.966259   0.000000
    34  H    7.270216   0.966533   1.536516   0.000000
    35  O    6.772381   6.907114   6.831034   6.801216   0.000000
    36  H    7.375922   6.641588   6.459423   6.501588   0.965881
    37  H    6.673633   7.362587   7.231232   7.366762   0.968111
                   36         37
    36  H    0.000000
    37  H    1.530975   0.000000
 Symmetry turned off by external request.
 Stoichiometry    C6H10Fe3N2O16(15)
 Framework group  C1[X(C6H10Fe3N2O16)]
 Deg. of freedom   105
 Full point group                 C1      NOp   1
 Rotational constants (GHZ):           0.2157643           0.1600676           0.1235751
 Leave Link  202 at Fri Feb  3 08:20:30 2023, MaxMem= 14763950080 cpu:               0.1 elap:               0.8
 (Enter /software/commercial/gaussian/g16/AVX2/g16/l301.exe)
 General basis read from cards:  (5D, 7F)
 Centers:       4      8     13     17     26     28     33     34     36     37
 S 3 1.00
     Exponent=  3.4061341000D+01 Coefficients=  6.0251978000D-03
     Exponent=  5.1235746000D+00 Coefficients=  4.5021094000D-02
     Exponent=  1.1646626000D+00 Coefficients=  2.0189726000D-01
 S 1 1.00
     Exponent=  3.2723041000D-01 Coefficients=  1.0000000000D+00
 S 1 1.00
     Exponent=  1.0307241000D-01 Coefficients=  1.0000000000D+00
 P 1 1.00
     Exponent=  8.0000000000D-01 Coefficients=  1.0000000000D+00
 ****
 Centers:       1      2      5      6      9     10     11     14     15     19
 Centers:      21     22     24     31     32     35
 S 6 1.00
     Exponent=  2.7032382631D+04 Coefficients=  2.1726302465D-04
     Exponent=  4.0523871392D+03 Coefficients=  1.6838662199D-03
     Exponent=  9.2232722710D+02 Coefficients=  8.7395616265D-03
     Exponent=  2.6124070989D+02 Coefficients=  3.5239968808D-02
     Exponent=  8.5354641351D+01 Coefficients=  1.1153519115D-01
     Exponent=  3.1035035245D+01 Coefficients=  2.5588953961D-01
 S 2 1.00
     Exponent=  1.2260860728D+01 Coefficients=  3.9768730901D-01
     Exponent=  4.9987076005D+00 Coefficients=  2.4627849430D-01
 S 1 1.00
     Exponent=  1.1703108158D+00 Coefficients=  1.0000000000D+00
 S 1 1.00
     Exponent=  4.6474740994D-01 Coefficients=  1.0000000000D+00
 S 1 1.00
     Exponent=  1.8504536357D-01 Coefficients=  1.0000000000D+00
 P 4 1.00
     Exponent=  6.3274954801D+01 Coefficients=  6.0685103418D-03
     Exponent=  1.4627049379D+01 Coefficients=  4.1912575824D-02
     Exponent=  4.4501223456D+00 Coefficients=  1.6153841088D-01
     Exponent=  1.5275799647D+00 Coefficients=  3.5706951311D-01
 P 1 1.00
     Exponent=  5.2935117943D-01 Coefficients=  4.4794207502D-01
 P 1 1.00
     Exponent=  1.7478421270D-01 Coefficients=  2.4446069663D-01
 D 1 1.00
     Exponent=  2.3140000000D+00 Coefficients=  1.0000000000D+00
 D 1 1.00
     Exponent=  6.4500000000D-01 Coefficients=  1.0000000000D+00
 F 1 1.00
     Exponent=  1.4280000000D+00 Coefficients=  1.0000000000D+00
 ****
 Centers:       3      7     12     16     25     27
 S 6 1.00
     Exponent=  1.3575349682D+04 Coefficients=  2.2245814352D-04
     Exponent=  2.0352333680D+03 Coefficients=  1.7232738252D-03
     Exponent=  4.6322562359D+02 Coefficients=  8.9255715314D-03
     Exponent=  1.3120019598D+02 Coefficients=  3.5727984502D-02
     Exponent=  4.2853015891D+01 Coefficients=  1.1076259931D-01
     Exponent=  1.5584185766D+01 Coefficients=  2.4295627626D-01
 S 2 1.00
     Exponent=  6.2067138508D+00 Coefficients=  4.1440263448D-01
     Exponent=  2.5764896527D+00 Coefficients=  2.3744968655D-01
 S 1 1.00
     Exponent=  5.7696339419D-01 Coefficients=  1.0000000000D+00
 S 1 1.00
     Exponent=  2.2972831358D-01 Coefficients=  1.0000000000D+00
 S 1 1.00
     Exponent=  9.5164440028D-02 Coefficients=  1.0000000000D+00
 P 4 1.00
     Exponent=  3.4697232244D+01 Coefficients=  5.3333657805D-03
     Exponent=  7.9582622826D+00 Coefficients=  3.5864109092D-02
     Exponent=  2.3780826883D+00 Coefficients=  1.4215873329D-01
     Exponent=  8.1433208183D-01 Coefficients=  3.4270471845D-01
 P 1 1.00
     Exponent=  2.8887547253D-01 Coefficients=  4.6445822433D-01
 P 1 1.00
     Exponent=  1.0056823671D-01 Coefficients=  2.4955789874D-01
 D 1 1.00
     Exponent=  1.0970000000D+00 Coefficients=  1.0000000000D+00
 D 1 1.00
     Exponent=  3.1800000000D-01 Coefficients=  1.0000000000D+00
 F 1 1.00
     Exponent=  7.6100000000D-01 Coefficients=  1.0000000000D+00
 ****
 Centers:      18     20     23
 S 8 1.00
     Exponent=  3.0078484637D+05 Coefficients=  2.2806273096D-04
     Exponent=  4.5088970557D+04 Coefficients=  1.7681788761D-03
     Exponent=  1.0262516317D+04 Coefficients=  9.1927083490D-03
     Exponent=  2.9052897293D+03 Coefficients=  3.7355495807D-02
     Exponent=  9.4611487137D+02 Coefficients=  1.2151108426D-01
     Exponent=  3.3987832894D+02 Coefficients=  2.8818881468D-01
     Exponent=  1.3194425588D+02 Coefficients=  4.1126612677D-01
     Exponent=  5.2111494077D+01 Coefficients=  2.1518583573D-01
 S 4 1.00
     Exponent=  3.2948839267D+02 Coefficients= -2.4745216477D-02
     Exponent=  1.0192332739D+02 Coefficients= -1.1683089050D-01
     Exponent=  1.6240462745D+01 Coefficients=  5.5293621136D-01
     Exponent=  6.8840675801D+00 Coefficients=  5.3601640182D-01
 S 2 1.00
     Exponent=  1.0470693782D+01 Coefficients= -2.2912708577D-01
     Exponent=  1.7360039648D+00 Coefficients=  7.1159319984D-01
 S 1 1.00
     Exponent=  7.2577288979D-01 Coefficients=  1.0000000000D+00
 S 1 1.00
     Exponent=  1.1595528203D-01 Coefficients=  1.0000000000D+00
 S 1 1.00
     Exponent=  4.1968227746D-02 Coefficients=  1.0000000000D+00
 P 6 1.00
     Exponent=  1.5853959970D+03 Coefficients=  2.3793960179D-03
     Exponent=  3.7538006499D+02 Coefficients=  1.9253154755D-02
     Exponent=  1.2031816501D+02 Coefficients=  9.0021836536D-02
     Exponent=  4.4788749031D+01 Coefficients=  2.5798172356D-01
     Exponent=  1.7829278584D+01 Coefficients=  4.1492649744D-01
     Exponent=  7.2247153786D+00 Coefficients=  2.4207474784D-01
 P 3 1.00
     Exponent=  2.8143219756D+01 Coefficients= -2.9041755152D-02
     Exponent=  3.8743241412D+00 Coefficients=  5.5312260343D-01
     Exponent=  1.5410752281D+00 Coefficients=  9.6771136842D-01
 P 1 1.00
     Exponent=  5.8285615250D-01 Coefficients=  1.0000000000D+00
 P 1 1.00
     Exponent=  1.3491500000D-01 Coefficients=  1.0000000000D+00
 D 4 1.00
     Exponent=  6.1996675034D+01 Coefficients=  1.1971972255D-02
     Exponent=  1.7873732552D+01 Coefficients=  7.3210135410D-02
     Exponent=  6.2744782934D+00 Coefficients=  2.3103094314D-01
     Exponent=  2.3552337175D+00 Coefficients=  3.9910706494D-01
 D 1 1.00
     Exponent=  8.5432239901D-01 Coefficients=  4.1391589765D-01
 D 1 1.00
     Exponent=  2.7869254413D-01 Coefficients=  2.1909269782D-01
 D 1 1.00
     Exponent=  9.1000000000D-02 Coefficients=  1.0000000000D+00
 F 1 1.00
     Exponent=  1.5980000000D+00 Coefficients=  1.0000000000D+00
 ****
 Centers:      29     30
 S 6 1.00
     Exponent=  1.9730800647D+04 Coefficients=  2.1887984991D-04
     Exponent=  2.9578958745D+03 Coefficients=  1.6960708803D-03
     Exponent=  6.7322133595D+02 Coefficients=  8.7954603538D-03
     Exponent=  1.9068249494D+02 Coefficients=  3.5359382605D-02
     Exponent=  6.2295441898D+01 Coefficients=  1.1095789217D-01
     Exponent=  2.2654161182D+01 Coefficients=  2.4982972552D-01
 S 2 1.00
     Exponent=  8.9791477428D+00 Coefficients=  4.0623896148D-01
     Exponent=  3.6863002370D+00 Coefficients=  2.4338217176D-01
 S 1 1.00
     Exponent=  8.4660076805D-01 Coefficients=  1.0000000000D+00
 S 1 1.00
     Exponent=  3.3647133771D-01 Coefficients=  1.0000000000D+00
 S 1 1.00
     Exponent=  1.3647653675D-01 Coefficients=  1.0000000000D+00
 P 4 1.00
     Exponent=  4.9200380510D+01 Coefficients=  5.5552416751D-03
     Exponent=  1.1346790537D+01 Coefficients=  3.8052379723D-02
     Exponent=  3.4273972411D+00 Coefficients=  1.4953671029D-01
     Exponent=  1.1785525134D+00 Coefficients=  3.4949305230D-01
 P 1 1.00
     Exponent=  4.1642204972D-01 Coefficients=  4.5843153697D-01
 P 1 1.00
     Exponent=  1.4260826011D-01 Coefficients=  2.4428771672D-01
 D 1 1.00
     Exponent=  1.6540000000D+00 Coefficients=  1.0000000000D+00
 D 1 1.00
     Exponent=  4.6900000000D-01 Coefficients=  1.0000000000D+00
 F 1 1.00
     Exponent=  1.0930000000D+00 Coefficients=  1.0000000000D+00
 ****
 Ernie: Thresh=  0.10000D-02 Tol=  0.10000D-05 Strict=F.
   939 basis functions,  1610 primitive gaussians,  1080 cartesian basis functions
   140 alpha electrons      126 beta electrons
       nuclear repulsion energy      5063.4865980524 Hartrees.
 IExCor= 4134 DFT=T Ex+Corr=M06L ExCW=0 ScaHFX=  0.000000
 ScaDFX=  1.000000  1.000000  1.000000  1.000000 ScalE2=  1.000000  1.000000
 IRadAn=      5 IRanWt=     -1 IRanGd=            0 ICorTp=0 IEmpDi=  4
 NAtoms=   37 NActive=   37 NUniq=   37 SFac= 1.00D+00 NAtFMM=   60 NAOKFM=F Big=F
 Integral buffers will be    131072 words long.
 Raffenetti 2 integral format.
 Two-electron integral symmetry is turned off.
 Leave Link  301 at Fri Feb  3 08:20:32 2023, MaxMem= 14763950080 cpu:               0.1 elap:               0.9
 (Enter /software/commercial/gaussian/g16/AVX2/g16/l302.exe)
 NPDir=0 NMtPBC=     1 NCelOv=     1 NCel=       1 NClECP=     1 NCelD=      1
         NCelK=      1 NCelE2=     1 NClLst=     1 CellRange=     0.0.
 One-electron integrals computed using PRISM.
 NBasis=   939 RedAO= T EigKep=  2.02D-04  NBF=   939
 NBsUse=   939 1.00D-06 EigRej= -1.00D+00 NBFU=   939
 Precomputing XC quadrature grid using
 IXCGrd= 4 IRadAn=           5 IRanWt=          -1 IRanGd=           0 AccXCQ= 0.00D+00.
 Generated NRdTot=       0 NPtTot=           0 NUsed=           0 NTot=          32
 NSgBfM=  1060  1060  1060  1060  1060 MxSgAt=    37 MxSgA2=    37.
 Leave Link  302 at Fri Feb  3 08:20:38 2023, MaxMem= 14763950080 cpu:               3.3 elap:               4.9
 (Enter /software/commercial/gaussian/g16/AVX2/g16/l303.exe)
 DipDrv:  MaxL=1.
 Leave Link  303 at Fri Feb  3 08:20:40 2023, MaxMem= 14763950080 cpu:               0.2 elap:               1.7
 (Enter /software/commercial/gaussian/g16/AVX2/g16/l401.exe)
 ExpMin= 4.20D-02 ExpMax= 3.01D+05 ExpMxC= 2.91D+03 IAcc=3 IRadAn=         5 AccDes= 0.00D+00
 Harris functional with IExCor= 1009 and IRadAn=       5 diagonalized for initial guess.
 HarFok:  IExCor= 1009 AccDes= 0.00D+00 IRadAn=         5 IDoV= 1 UseB2=F ITyADJ=14
 ICtDFT=  3500011 ScaDFX=  1.000000  1.000000  1.000000  1.000000
 FoFCou: FMM=F IPFlag=           0 FMFlag=      100000 FMFlg1=           0
         NFxFlg=           0 DoJE=T BraDBF=F KetDBF=T FulRan=T
         wScrn=  0.000000 ICntrl=       500 IOpCl=  0 I1Cent=   200000004 NGrid=           0
         NMat0=    1 NMatS0=      1 NMatT0=    0 NMatD0=    1 NMtDS0=    0 NMtDT0=    0
 Symmetry not used in FoFCou.
 Harris En= -5337.46493823704    
 JPrj=0 DoOrth=F DoCkMO=F.
 Initial guess <Sx>= 0.0000 <Sy>= 0.0000 <Sz>= 7.0000 <S**2>=56.0000 S= 7.0000
 Leave Link  401 at Fri Feb  3 08:21:01 2023, MaxMem= 14763950080 cpu:              35.9 elap:              19.7
 (Enter /software/commercial/gaussian/g16/AVX2/g16/l502.exe)
 Two-electron integral symmetry not used.
 UHF open shell SCF:
 Using DIIS extrapolation, IDIIS=  1040.
 NGot= 14763950080 LenX= 14761603088 LenY= 14760435608
 Requested convergence on RMS density matrix=1.00D-08 within 150 cycles.
 Requested convergence on MAX density matrix=1.00D-06.
 Requested convergence on             energy=1.00D-06.
 No special actions if energy rises.
 Fock matrices will be formed incrementally for  20 cycles.

 Cycle   1  Pass 1  IDiag  1:
 FoFJK:  IHMeth= 1 ICntrl=     500 DoSepK=F KAlg= 0 I1Cent=           0 FoldK=F
 IRaf= 760000000 NMat=       1 IRICut=       1 DoRegI=T DoRafI=F ISym2E= 0 IDoP0=0 IntGTp=1.
 FoFCou: FMM=F IPFlag=           0 FMFlag=      100000 FMFlg1=           0
         NFxFlg=           0 DoJE=T BraDBF=F KetDBF=F FulRan=T
         wScrn=  0.000000 ICntrl=       500 IOpCl=  0 I1Cent=           0 NGrid=           0
         NMat0=    1 NMatS0=      1 NMatT0=    0 NMatD0=    1 NMtDS0=    0 NMtDT0=    0
 Symmetry not used in FoFCou.
 E= -5338.02472446985    
 DIIS: error= 6.94D-02 at cycle   1 NSaved=   1.
 NSaved= 1 IEnMin= 1 EnMin= -5338.02472446985     IErMin= 1 ErrMin= 6.94D-02
 ErrMax= 6.94D-02  0.00D+00 EMaxC= 1.00D-01 BMatC= 1.36D+01 BMatP= 1.36D+01
 IDIUse=3 WtCom= 3.06D-01 WtEn= 6.94D-01
 Coeff-Com:  0.100D+01
 Coeff-En:   0.100D+01
 Coeff:      0.100D+01
 Gap=     0.073 Goal=   None    Shift=    0.000
 Gap=    -0.406 Goal=   None    Shift=    0.000
 GapD=   -0.406 DampG=0.250 DampE=0.250 DampFc=0.1250 IDamp=-1.
 Damping current iteration by 1.25D-01
 RMSDP=3.79D-03 MaxDP=7.19D-01              OVMax= 9.76D-01

 Cycle   2  Pass 1  IDiag  1:
 RMSU=  4.73D-04    CP:  9.97D-01
 E= -5338.62901202414     Delta-E=       -0.604287554297 Rises=F Damp=T
 DIIS: error= 2.21D-02 at cycle   2 NSaved=   2.
 NSaved= 2 IEnMin= 2 EnMin= -5338.62901202414     IErMin= 2 ErrMin= 2.21D-02
 ErrMax= 2.21D-02  0.00D+00 EMaxC= 1.00D-01 BMatC= 3.09D+00 BMatP= 1.36D+01
 IDIUse=3 WtCom= 7.79D-01 WtEn= 2.21D-01
 Coeff-Com: -0.452D+00 0.145D+01
 Coeff-En:   0.109D+00 0.891D+00
 Coeff:     -0.329D+00 0.133D+01
 Gap=    -0.126 Goal=   None    Shift=    0.000
 Gap=    -0.069 Goal=   None    Shift=    0.000
 RMSDP=2.54D-03 MaxDP=2.82D-01 DE=-6.04D-01 OVMax= 9.99D-01

 Cycle   3  Pass 1  IDiag  1:
 RMSU=  2.52D-03    CP:  9.69D-01  1.53D+00
 E= -5320.41575365064     Delta-E=       18.213258373500 Rises=F Damp=F
 DIIS: error= 2.50D-01 at cycle   3 NSaved=   3.
 NSaved= 3 IEnMin= 2 EnMin= -5338.62901202414     IErMin= 2 ErrMin= 2.21D-02
 ErrMax= 2.50D-01  0.00D+00 EMaxC= 1.00D-01 BMatC= 7.92D+01 BMatP= 3.09D+00
 IDIUse=2 WtCom= 0.00D+00 WtEn= 1.00D+00
 EnCoef did     2 forward-backward iterations
 Coeff-En:   0.680D-01 0.892D+00 0.401D-01
 Coeff:      0.680D-01 0.892D+00 0.401D-01
 Gap=     0.071 Goal=   None    Shift=    0.000
 Gap=     0.012 Goal=   None    Shift=    0.000
 RMSDP=2.52D-03 MaxDP=2.92D-01 DE= 1.82D+01 OVMax= 8.56D-01

 Cycle   4  Pass 1  IDiag  1:
 RMSU=  1.41D-03    CP:  9.87D-01  2.66D+00  2.03D-01
 E= -5332.77220332686     Delta-E=      -12.356449676214 Rises=F Damp=F
 DIIS: error= 1.94D-01 at cycle   4 NSaved=   4.
 NSaved= 4 IEnMin= 2 EnMin= -5338.62901202414     IErMin= 2 ErrMin= 2.21D-02
 ErrMax= 1.94D-01  0.00D+00 EMaxC= 1.00D-01 BMatC= 4.90D+01 BMatP= 3.09D+00
 IDIUse=2 WtCom= 0.00D+00 WtEn= 1.00D+00
 EnCoef did   100 forward-backward iterations
 Coeff-En:   0.690D+00 0.245D-01 0.596D-03 0.285D+00
 Coeff:      0.690D+00 0.245D-01 0.596D-03 0.285D+00
 Gap=     0.063 Goal=   None    Shift=    0.000
 Gap=     0.043 Goal=   None    Shift=    0.000
 RMSDP=1.52D-03 MaxDP=2.95D-01 DE=-1.24D+01 OVMax= 7.69D-01

 Cycle   5  Pass 1  IDiag  1:
 RMSU=  1.17D-03    CP:  9.92D-01  1.72D+00  4.03D-02  4.58D-01
 E= -5337.00820659049     Delta-E=       -4.236003263633 Rises=F Damp=F
 DIIS: error= 7.90D-02 at cycle   5 NSaved=   5.
 NSaved= 5 IEnMin= 2 EnMin= -5338.62901202414     IErMin= 2 ErrMin= 2.21D-02
 ErrMax= 7.90D-02  0.00D+00 EMaxC= 1.00D-01 BMatC= 1.54D+01 BMatP= 3.09D+00
 IDIUse=2 WtCom= 0.00D+00 WtEn= 1.00D+00
 EnCoef did   100 forward-backward iterations
 Coeff-En:   0.608D+00 0.104D-01 0.253D-03 0.209D+00 0.172D+00
 Coeff:      0.608D+00 0.104D-01 0.253D-03 0.209D+00 0.172D+00
 Gap=     0.228 Goal=   None    Shift=    0.000
 Gap=     0.015 Goal=   None    Shift=    0.000
 RMSDP=1.64D-03 MaxDP=2.92D-01 DE=-4.24D+00 OVMax= 8.52D-01

 Cycle   6  Pass 1  IDiag  1:
 RMSU=  1.13D-03    CP:  9.91D-01  1.52D+00  2.82D-01  3.55D-01  1.45D-01
 E= -5335.94933673299     Delta-E=        1.058869857505 Rises=F Damp=F
 DIIS: error= 1.20D-01 at cycle   6 NSaved=   6.
 NSaved= 6 IEnMin= 2 EnMin= -5338.62901202414     IErMin= 2 ErrMin= 2.21D-02
 ErrMax= 1.20D-01  0.00D+00 EMaxC= 1.00D-01 BMatC= 2.31D+01 BMatP= 3.09D+00
 IDIUse=2 WtCom= 0.00D+00 WtEn= 1.00D+00
 EnCoef did   100 forward-backward iterations
 Coeff-En:   0.363D+00 0.107D-01 0.000D+00 0.305D-03 0.356D+00 0.270D+00
 Coeff:      0.363D+00 0.107D-01 0.000D+00 0.305D-03 0.356D+00 0.270D+00
 Gap=     0.009 Goal=   None    Shift=    0.000
 Gap=     0.027 Goal=   None    Shift=    0.000
 RMSDP=1.41D-03 MaxDP=2.98D-01 DE= 1.06D+00 OVMax= 6.08D-01

 Cycle   7  Pass 1  IDiag  1:
 RMSU=  8.01D-04    CP:  9.98D-01  1.05D+00  1.04D-01  4.46D-01  9.42D-02
                    CP:  8.59D-02
 E= -5339.00825589266     Delta-E=       -3.058919159674 Rises=F Damp=F
 DIIS: error= 3.49D-02 at cycle   7 NSaved=   7.
 NSaved= 7 IEnMin= 7 EnMin= -5339.00825589266     IErMin= 2 ErrMin= 2.21D-02
 ErrMax= 3.49D-02  0.00D+00 EMaxC= 1.00D-01 BMatC= 4.53D+00 BMatP= 3.09D+00
 IDIUse=2 WtCom= 0.00D+00 WtEn= 1.00D+00
 EnCoef did     3 forward-backward iterations
 Coeff-En:   0.232D+00 0.000D+00 0.000D+00 0.000D+00 0.253D+00 0.195D+00
 Coeff-En:   0.320D+00
 Coeff:      0.232D+00 0.000D+00 0.000D+00 0.000D+00 0.253D+00 0.195D+00
 Coeff:      0.320D+00
 Gap=     0.109 Goal=   None    Shift=    0.000
 Gap=     0.166 Goal=   None    Shift=    0.000
 RMSDP=1.21D-03 MaxDP=2.49D-01 DE=-3.06D+00 OVMax= 9.58D-01

 Cycle   8  Pass 1  IDiag  1:
 RMSU=  9.12D-04    CP:  9.95D-01  9.89D-01  1.96D-01  2.61D-01  2.65D-01
                    CP:  3.38D-01  2.24D-01
 E= -5338.51324035161     Delta-E=        0.495015541044 Rises=F Damp=F
 DIIS: error= 3.37D-02 at cycle   8 NSaved=   8.
 NSaved= 8 IEnMin= 7 EnMin= -5339.00825589266     IErMin= 2 ErrMin= 2.21D-02
 ErrMax= 3.37D-02  0.00D+00 EMaxC= 1.00D-01 BMatC= 5.99D+00 BMatP= 3.09D+00
 IDIUse=2 WtCom= 0.00D+00 WtEn= 1.00D+00
 EnCoef did     3 forward-backward iterations
 Coeff-En:   0.000D+00 0.000D+00 0.000D+00 0.000D+00 0.107D+00 0.472D-02
 Coeff-En:   0.509D+00 0.378D+00
 Coeff:      0.000D+00 0.000D+00 0.000D+00 0.000D+00 0.107D+00 0.472D-02
 Coeff:      0.509D+00 0.378D+00
 Gap=     0.016 Goal=   None    Shift=    0.000
 Gap=     0.126 Goal=   None    Shift=    0.000
 RMSDP=1.51D-03 MaxDP=3.39D-01 DE= 4.95D-01 OVMax= 8.03D-01

 Cycle   9  Pass 1  IDiag  1:
 RMSU=  1.00D-03    CP:  9.94D-01  1.46D+00  2.60D-02  3.36D-01  5.04D-01
                    CP:  2.01D-01  3.01D-01 -4.80D-02
 E= -5336.20431621802     Delta-E=        2.308924133597 Rises=F Damp=F
 DIIS: error= 8.79D-02 at cycle   9 NSaved=   9.
 NSaved= 9 IEnMin= 7 EnMin= -5339.00825589266     IErMin= 2 ErrMin= 2.21D-02
 ErrMax= 8.79D-02  0.00D+00 EMaxC= 1.00D-01 BMatC= 1.80D+01 BMatP= 3.09D+00
 IDIUse=2 WtCom= 0.00D+00 WtEn= 1.00D+00
 EnCoef did    16 forward-backward iterations
 Coeff-En:   0.000D+00 0.000D+00 0.000D+00 0.000D+00 0.440D-01 0.000D+00
 Coeff-En:   0.343D+00 0.461D+00 0.152D+00
 Coeff:      0.000D+00 0.000D+00 0.000D+00 0.000D+00 0.440D-01 0.000D+00
 Coeff:      0.343D+00 0.461D+00 0.152D+00
 Gap=     0.155 Goal=   None    Shift=    0.000
 Gap=     0.012 Goal=   None    Shift=    0.000
 RMSDP=1.09D-03 MaxDP=3.16D-01 DE= 2.31D+00 OVMax= 9.37D-01

 Cycle  10  Pass 1  IDiag  1:
 RMSU=  4.36D-04    CP:  1.00D+00  9.32D-01  6.38D-02  3.19D-01  3.83D-01
                    CP:  1.43D-01  4.21D-01  1.69D-01  8.12D-02
 E= -5339.53620288040     Delta-E=       -3.331886662378 Rises=F Damp=F
 DIIS: error= 4.06D-02 at cycle  10 NSaved=  10.
 NSaved=10 IEnMin=10 EnMin= -5339.53620288040     IErMin= 2 ErrMin= 2.21D-02
 ErrMax= 4.06D-02  0.00D+00 EMaxC= 1.00D-01 BMatC= 1.39D+00 BMatP= 3.09D+00
 IDIUse=3 WtCom= 5.94D-01 WtEn= 4.06D-01
 EnCoef did    27 forward-backward iterations
 Coeff-Com: -0.238D+00 0.355D+00-0.111D-01-0.170D-01-0.144D-01 0.595D-01
 Coeff-Com:  0.170D+00 0.218D+00 0.805D-02 0.469D+00
 Coeff-En:   0.000D+00 0.000D+00 0.000D+00 0.181D-01 0.643D-03 0.237D-01
 Coeff-En:   0.144D+00 0.179D+00 0.258D-01 0.609D+00
 Coeff:     -0.141D+00 0.211D+00-0.658D-02-0.277D-02-0.828D-02 0.450D-01
 Coeff:      0.160D+00 0.202D+00 0.153D-01 0.526D+00
 Gap=     0.092 Goal=   None    Shift=    0.000
 Gap=     0.019 Goal=   None    Shift=    0.000
 RMSDP=7.25D-04 MaxDP=1.76D-01 DE=-3.33D+00 OVMax= 5.21D-01

 Cycle  11  Pass 1  IDiag  1:
 RMSU=  5.31D-04    CP:  9.98D-01  1.37D+00  9.02D-02  5.02D-01  1.86D-01
                    CP:  2.06D-01  4.00D-01  2.55D-01  7.28D-02  4.13D-01
 E= -5338.78894881155     Delta-E=        0.747254068849 Rises=F Damp=F
 DIIS: error= 1.01D-01 at cycle  11 NSaved=  11.
 NSaved=11 IEnMin=10 EnMin= -5339.53620288040     IErMin= 2 ErrMin= 2.21D-02
 ErrMax= 1.01D-01  0.00D+00 EMaxC= 1.00D-01 BMatC= 6.23D+00 BMatP= 1.39D+00
 IDIUse=2 WtCom= 0.00D+00 WtEn= 1.00D+00
 Coeff-En:   0.000D+00 0.000D+00 0.000D+00 0.000D+00 0.000D+00 0.000D+00
 Coeff-En:   0.000D+00 0.000D+00 0.000D+00 0.705D+00 0.295D+00
 Coeff:      0.000D+00 0.000D+00 0.000D+00 0.000D+00 0.000D+00 0.000D+00
 Coeff:      0.000D+00 0.000D+00 0.000D+00 0.705D+00 0.295D+00
 Gap=     0.075 Goal=   None    Shift=    0.000
 Gap=     0.089 Goal=   None    Shift=    0.000
 RMSDP=6.44D-04 MaxDP=8.96D-02 DE= 7.47D-01 OVMax= 3.06D-01

 Cycle  12  Pass 1  IDiag  1:
 RMSU=  4.23D-04    CP:  1.00D+00  1.15D+00  1.14D-01  3.63D-01  1.74D-01
                    CP:  2.15D-01  5.17D-01  2.97D-01 -3.99D-02  5.24D-01
                    CP:  2.54D-01
 E= -5339.52307744458     Delta-E=       -0.734128633034 Rises=F Damp=F
 DIIS: error= 3.16D-02 at cycle  12 NSaved=  12.
 NSaved=12 IEnMin=10 EnMin= -5339.53620288040     IErMin= 2 ErrMin= 2.21D-02
 ErrMax= 3.16D-02  0.00D+00 EMaxC= 1.00D-01 BMatC= 1.42D+00 BMatP= 1.39D+00
 IDIUse=3 WtCom= 6.84D-01 WtEn= 3.16D-01
 EnCoef did     6 forward-backward iterations
 Coeff-Com: -0.843D-01 0.934D-01 0.268D-02-0.386D-01 0.426D-02-0.230D-02
 Coeff-Com:  0.700D-01 0.173D-01 0.362D-02 0.505D+00 0.191D+00 0.238D+00
 Coeff-En:   0.000D+00 0.000D+00 0.000D+00 0.000D+00 0.000D+00 0.000D+00
 Coeff-En:   0.000D+00 0.000D+00 0.000D+00 0.573D+00 0.171D+00 0.256D+00
 Coeff:     -0.577D-01 0.638D-01 0.183D-02-0.264D-01 0.291D-02-0.157D-02
 Coeff:      0.479D-01 0.118D-01 0.247D-02 0.527D+00 0.184D+00 0.244D+00
 Gap=     0.080 Goal=   None    Shift=    0.000
 Gap=     0.114 Goal=   None    Shift=    0.000
 RMSDP=4.14D-04 MaxDP=5.87D-02 DE=-7.34D-01 OVMax= 3.14D-01

 Cycle  13  Pass 1  IDiag  1:
 RMSU=  1.07D-04    CP:  1.00D+00  1.09D+00  7.83D-02  3.87D-01  2.56D-01
                    CP:  1.86D-01  5.15D-01  1.90D-01  4.26D-02  6.92D-01
                    CP:  4.23D-01  2.16D-01
 E= -5339.73755593966     Delta-E=       -0.214478495076 Rises=F Damp=F
 DIIS: error= 1.25D-02 at cycle  13 NSaved=  13.
 NSaved=13 IEnMin=13 EnMin= -5339.73755593966     IErMin=13 ErrMin= 1.25D-02
 ErrMax= 1.25D-02  0.00D+00 EMaxC= 1.00D-01 BMatC= 1.33D-01 BMatP= 1.39D+00
 IDIUse=3 WtCom= 8.75D-01 WtEn= 1.25D-01
 Coeff-Com: -0.484D-01 0.641D-01 0.978D-03-0.442D-02-0.137D-02-0.424D-02
 Coeff-Com:  0.590D-02 0.248D-02-0.142D-02 0.241D+00-0.235D-01 0.110D+00
 Coeff-Com:  0.660D+00
 Coeff-En:   0.000D+00 0.000D+00 0.000D+00 0.000D+00 0.000D+00 0.000D+00
 Coeff-En:   0.000D+00 0.000D+00 0.000D+00 0.180D+00 0.000D+00 0.000D+00
 Coeff-En:   0.820D+00
 Coeff:     -0.423D-01 0.561D-01 0.855D-03-0.387D-02-0.120D-02-0.371D-02
 Coeff:      0.516D-02 0.217D-02-0.124D-02 0.233D+00-0.206D-01 0.960D-01
 Coeff:      0.680D+00
 Gap=     0.085 Goal=   None    Shift=    0.000
 Gap=     0.072 Goal=   None    Shift=    0.000
 RMSDP=1.13D-04 MaxDP=1.70D-02 DE=-2.14D-01 OVMax= 6.06D-02

 Cycle  14  Pass 1  IDiag  1:
 RMSU=  5.97D-05    CP:  1.00D+00  1.07D+00  7.53D-02  3.69D-01  2.79D-01
                    CP:  1.73D-01  4.99D-01  1.99D-01  3.45D-02  7.82D-01
                    CP:  2.98D-01  2.76D-01  7.83D-01
 E= -5339.75701837448     Delta-E=       -0.019462434819 Rises=F Damp=F
 DIIS: error= 1.66D-03 at cycle  14 NSaved=  14.
 NSaved=14 IEnMin=14 EnMin= -5339.75701837448     IErMin=14 ErrMin= 1.66D-03
 ErrMax= 1.66D-03  0.00D+00 EMaxC= 1.00D-01 BMatC= 1.39D-02 BMatP= 1.33D-01
 IDIUse=3 WtCom= 9.83D-01 WtEn= 1.66D-02
 Coeff-Com: -0.298D-01 0.386D-01 0.269D-03 0.368D-03-0.233D-02-0.101D-02
 Coeff-Com: -0.169D-02 0.540D-03-0.443D-03 0.124D+00-0.321D-01 0.332D-01
 Coeff-Com:  0.483D+00 0.387D+00
 Coeff-En:   0.000D+00 0.000D+00 0.000D+00 0.000D+00 0.000D+00 0.000D+00
 Coeff-En:   0.000D+00 0.000D+00 0.000D+00 0.000D+00 0.000D+00 0.000D+00
 Coeff-En:   0.120D+00 0.880D+00
 Coeff:     -0.293D-01 0.380D-01 0.264D-03 0.362D-03-0.229D-02-0.990D-03
 Coeff:     -0.166D-02 0.531D-03-0.435D-03 0.122D+00-0.316D-01 0.327D-01
 Coeff:      0.477D+00 0.395D+00
 Gap=     0.078 Goal=   None    Shift=    0.000
 Gap=     0.070 Goal=   None    Shift=    0.000
 RMSDP=5.09D-05 MaxDP=6.75D-03 DE=-1.95D-02 OVMax= 2.18D-02

 Cycle  15  Pass 1  IDiag  1:
 RMSU=  2.59D-05    CP:  1.00D+00  1.07D+00  7.49D-02  3.69D-01  2.77D-01
                    CP:  1.80D-01  5.03D-01  1.92D-01  4.24D-02  7.74D-01
                    CP:  3.22D-01  2.50D-01  9.25D-01  4.16D-01
 E= -5339.75908909197     Delta-E=       -0.002070717492 Rises=F Damp=F
 DIIS: error= 1.13D-03 at cycle  15 NSaved=  15.
 NSaved=15 IEnMin=15 EnMin= -5339.75908909197     IErMin=15 ErrMin= 1.13D-03
 ErrMax= 1.13D-03  0.00D+00 EMaxC= 1.00D-01 BMatC= 4.11D-03 BMatP= 1.39D-02
 IDIUse=3 WtCom= 9.89D-01 WtEn= 1.13D-02
 Coeff-Com: -0.134D-01 0.147D-01 0.342D-03 0.170D-02-0.524D-04-0.977D-03
 Coeff-Com: -0.550D-03-0.106D-02 0.822D-03 0.380D-01-0.152D-01-0.218D-02
 Coeff-Com:  0.149D+00 0.309D+00 0.520D+00
 Coeff-En:   0.000D+00 0.000D+00 0.000D+00 0.000D+00 0.000D+00 0.000D+00
 Coeff-En:   0.000D+00 0.000D+00 0.000D+00 0.000D+00 0.000D+00 0.000D+00
 Coeff-En:   0.000D+00 0.233D+00 0.767D+00
 Coeff:     -0.132D-01 0.145D-01 0.338D-03 0.168D-02-0.518D-04-0.966D-03
 Coeff:     -0.544D-03-0.105D-02 0.813D-03 0.376D-01-0.150D-01-0.216D-02
 Coeff:      0.147D+00 0.308D+00 0.523D+00
 Gap=     0.079 Goal=   None    Shift=    0.000
 Gap=     0.069 Goal=   None    Shift=    0.000
 RMSDP=1.94D-05 MaxDP=3.32D-03 DE=-2.07D-03 OVMax= 8.85D-03

 Cycle  16  Pass 1  IDiag  1:
 RMSU=  1.12D-05    CP:  1.00D+00  1.07D+00  7.50D-02  3.69D-01  2.80D-01
                    CP:  1.77D-01  5.02D-01  1.92D-01  4.20D-02  7.81D-01
                    CP:  3.10D-01  2.48D-01  9.19D-01  5.62D-01  6.10D-01
 E= -5339.75972751230     Delta-E=       -0.000638420337 Rises=F Damp=F
 DIIS: error= 3.47D-04 at cycle  16 NSaved=  16.
 NSaved=16 IEnMin=16 EnMin= -5339.75972751230     IErMin=16 ErrMin= 3.47D-04
 ErrMax= 3.47D-04  0.00D+00 EMaxC= 1.00D-01 BMatC= 5.10D-04 BMatP= 4.11D-03
 IDIUse=3 WtCom= 9.97D-01 WtEn= 3.47D-03
 Coeff-Com: -0.822D-02 0.915D-02 0.115D-03 0.356D-03 0.623D-03-0.679D-03
 Coeff-Com:  0.162D-02-0.109D-02 0.160D-03 0.764D-02-0.144D-02-0.596D-02
 Coeff-Com:  0.132D-01 0.140D+00 0.325D+00 0.519D+00
 Coeff-En:   0.000D+00 0.000D+00 0.000D+00 0.000D+00 0.000D+00 0.000D+00
 Coeff-En:   0.000D+00 0.000D+00 0.000D+00 0.000D+00 0.000D+00 0.000D+00
 Coeff-En:   0.000D+00 0.000D+00 0.000D+00 0.100D+01
 Coeff:     -0.819D-02 0.911D-02 0.115D-03 0.355D-03 0.621D-03-0.677D-03
 Coeff:      0.162D-02-0.109D-02 0.160D-03 0.761D-02-0.143D-02-0.594D-02
 Coeff:      0.132D-01 0.140D+00 0.324D+00 0.521D+00
 Gap=     0.079 Goal=   None    Shift=    0.000
 Gap=     0.069 Goal=   None    Shift=    0.000
 RMSDP=7.79D-06 MaxDP=8.77D-04 DE=-6.38D-04 OVMax= 2.50D-03

 Cycle  17  Pass 1  IDiag  1:
 RMSU=  5.83D-06    CP:  1.00D+00  1.07D+00  7.48D-02  3.69D-01  2.80D-01
                    CP:  1.77D-01  5.02D-01  1.92D-01  4.12D-02  7.82D-01
                    CP:  3.11D-01  2.48D-01  9.18D-01  5.89D-01  7.53D-01
                    CP:  7.45D-01
 E= -5339.75978438941     Delta-E=       -0.000056877107 Rises=F Damp=F
 DIIS: error= 3.21D-04 at cycle  17 NSaved=  17.
 NSaved=17 IEnMin=17 EnMin= -5339.75978438941     IErMin=17 ErrMin= 3.21D-04
 ErrMax= 3.21D-04  0.00D+00 EMaxC= 1.00D-01 BMatC= 2.63D-04 BMatP= 5.10D-04
 IDIUse=3 WtCom= 9.97D-01 WtEn= 3.21D-03
 Coeff-Com: -0.539D-02 0.668D-02-0.260D-04 0.161D-03 0.543D-03-0.673D-03
 Coeff-Com:  0.108D-02-0.736D-03 0.351D-03-0.123D-02 0.165D-02-0.329D-02
 Coeff-Com: -0.142D-01 0.422D-01 0.125D+00 0.366D+00 0.482D+00
 Coeff-En:   0.000D+00 0.000D+00 0.000D+00 0.000D+00 0.000D+00 0.000D+00
 Coeff-En:   0.000D+00 0.000D+00 0.000D+00 0.000D+00 0.000D+00 0.000D+00
 Coeff-En:   0.000D+00 0.000D+00 0.000D+00 0.884D-01 0.912D+00
 Coeff:     -0.538D-02 0.666D-02-0.259D-04 0.161D-03 0.541D-03-0.671D-03
 Coeff:      0.108D-02-0.734D-03 0.349D-03-0.122D-02 0.165D-02-0.328D-02
 Coeff:     -0.142D-01 0.421D-01 0.125D+00 0.365D+00 0.483D+00
 Gap=     0.079 Goal=   None    Shift=    0.000
 Gap=     0.069 Goal=   None    Shift=    0.000
 RMSDP=4.31D-06 MaxDP=5.03D-04 DE=-5.69D-05 OVMax= 1.66D-03

 Cycle  18  Pass 1  IDiag  1:
 RMSU=  3.09D-06    CP:  1.00D+00  1.07D+00  7.47D-02  3.69D-01  2.80D-01
                    CP:  1.77D-01  5.02D-01  1.92D-01  4.17D-02  7.83D-01
                    CP:  3.10D-01  2.47D-01  9.20D-01  5.95D-01  7.71D-01
                    CP:  9.34D-01  7.27D-01
 E= -5339.75980957601     Delta-E=       -0.000025186597 Rises=F Damp=F
 DIIS: error= 3.56D-04 at cycle  18 NSaved=  18.
 NSaved=18 IEnMin=18 EnMin= -5339.75980957601     IErMin=17 ErrMin= 3.21D-04
 ErrMax= 3.56D-04  0.00D+00 EMaxC= 1.00D-01 BMatC= 1.48D-04 BMatP= 2.63D-04
 IDIUse=3 WtCom= 9.97D-01 WtEn= 3.21D-03
 Coeff-Com: -0.334D-02 0.462D-02-0.917D-04 0.612D-04 0.265D-03-0.358D-03
 Coeff-Com:  0.554D-05 0.341D-05 0.222D-03-0.233D-02 0.197D-02-0.851D-03
 Coeff-Com: -0.292D-02-0.222D-01-0.537D-01-0.282D-02 0.351D+00 0.730D+00
 Coeff-En:   0.000D+00 0.000D+00 0.000D+00 0.000D+00 0.000D+00 0.000D+00
 Coeff-En:   0.000D+00 0.000D+00 0.000D+00 0.000D+00 0.000D+00 0.000D+00
 Coeff-En:   0.000D+00 0.000D+00 0.000D+00 0.000D+00 0.000D+00 0.100D+01
 Coeff:     -0.333D-02 0.460D-02-0.914D-04 0.610D-04 0.264D-03-0.357D-03
 Coeff:      0.552D-05 0.340D-05 0.221D-03-0.232D-02 0.196D-02-0.848D-03
 Coeff:     -0.291D-02-0.221D-01-0.535D-01-0.281D-02 0.350D+00 0.731D+00
 Gap=     0.079 Goal=   None    Shift=    0.000
 Gap=     0.069 Goal=   None    Shift=    0.000
 RMSDP=3.37D-06 MaxDP=5.79D-04 DE=-2.52D-05 OVMax= 1.58D-03

 Cycle  19  Pass 1  IDiag  1:
 RMSU=  2.08D-06    CP:  1.00D+00  1.08D+00  7.45D-02  3.70D-01  2.80D-01
                    CP:  1.76D-01  5.02D-01  1.92D-01  4.18D-02  7.84D-01
                    CP:  3.11D-01  2.45D-01  9.24D-01  6.03D-01  8.05D-01
                    CP:  1.01D+00  1.03D+00  9.05D-01
 E= -5339.75982923430     Delta-E=       -0.000019658288 Rises=F Damp=F
 DIIS: error= 2.51D-04 at cycle  19 NSaved=  19.
 NSaved=19 IEnMin=19 EnMin= -5339.75982923430     IErMin=19 ErrMin= 2.51D-04
 ErrMax= 2.51D-04  0.00D+00 EMaxC= 1.00D-01 BMatC= 5.59D-05 BMatP= 1.48D-04
 IDIUse=3 WtCom= 9.97D-01 WtEn= 2.51D-03
 Coeff-Com: -0.174D-02 0.218D-02-0.317D-04 0.936D-04 0.160D-03-0.129D-03
 Coeff-Com: -0.609D-03 0.211D-03 0.288D-04-0.173D-04 0.706D-03 0.515D-04
 Coeff-Com:  0.116D-01-0.214D-01-0.710D-01-0.156D+00 0.366D-01 0.489D+00
 Coeff-Com:  0.711D+00
 Coeff-En:   0.000D+00 0.000D+00 0.000D+00 0.000D+00 0.000D+00 0.000D+00
 Coeff-En:   0.000D+00 0.000D+00 0.000D+00 0.000D+00 0.000D+00 0.000D+00
 Coeff-En:   0.000D+00 0.000D+00 0.000D+00 0.000D+00 0.000D+00 0.000D+00
 Coeff-En:   0.100D+01
 Coeff:     -0.173D-02 0.218D-02-0.316D-04 0.934D-04 0.160D-03-0.129D-03
 Coeff:     -0.608D-03 0.210D-03 0.288D-04-0.173D-04 0.704D-03 0.514D-04
 Coeff:      0.115D-01-0.214D-01-0.709D-01-0.155D+00 0.365D-01 0.487D+00
 Coeff:      0.711D+00
 Gap=     0.079 Goal=   None    Shift=    0.000
 Gap=     0.068 Goal=   None    Shift=    0.000
 RMSDP=2.43D-06 MaxDP=4.82D-04 DE=-1.97D-05 OVMax= 1.13D-03

 Cycle  20  Pass 1  IDiag  1:
 RMSU=  1.24D-06    CP:  1.00D+00  1.08D+00  7.45D-02  3.70D-01  2.81D-01
                    CP:  1.76D-01  5.02D-01  1.92D-01  4.20D-02  7.84D-01
                    CP:  3.12D-01  2.44D-01  9.26D-01  6.06D-01  8.23D-01
                    CP:  1.07D+00  1.15D+00  1.25D+00  1.05D+00
 E= -5339.75983865123     Delta-E=       -0.000009416937 Rises=F Damp=F
 DIIS: error= 9.47D-05 at cycle  20 NSaved=  20.
 NSaved=20 IEnMin=20 EnMin= -5339.75983865123     IErMin=20 ErrMin= 9.47D-05
 ErrMax= 9.47D-05  0.00D+00 EMaxC= 1.00D-01 BMatC= 9.53D-06 BMatP= 5.59D-05
 IDIUse=1 WtCom= 1.00D+00 WtEn= 0.00D+00
 Coeff-Com: -0.513D-03 0.519D-03-0.615D-05 0.878D-04 0.933D-04-0.708D-04
 Coeff-Com: -0.462D-03 0.173D-03-0.427D-04 0.364D-03-0.202D-03 0.359D-03
 Coeff-Com:  0.966D-02-0.487D-02-0.231D-01-0.104D+00-0.861D-01 0.787D-01
 Coeff-Com:  0.483D+00 0.646D+00
 Coeff:     -0.513D-03 0.519D-03-0.615D-05 0.878D-04 0.933D-04-0.708D-04
 Coeff:     -0.462D-03 0.173D-03-0.427D-04 0.364D-03-0.202D-03 0.359D-03
 Coeff:      0.966D-02-0.487D-02-0.231D-01-0.104D+00-0.861D-01 0.787D-01
 Coeff:      0.483D+00 0.646D+00
 Gap=     0.080 Goal=   None    Shift=    0.000
 Gap=     0.068 Goal=   None    Shift=    0.000
 RMSDP=1.38D-06 MaxDP=2.72D-04 DE=-9.42D-06 OVMax= 6.69D-04

 Cycle  21  Pass 1  IDiag  1:
 Restarting incremental Fock formation.
 E= -5339.75984035216     Delta-E=       -0.000001700926 Rises=F Damp=F
 DIIS: error= 1.41D-05 at cycle  21 NSaved=  20.
 NSaved=20 IEnMin=20 EnMin= -5339.75984035216     IErMin=20 ErrMin= 1.41D-05
 ErrMax= 1.41D-05  0.00D+00 EMaxC= 1.00D-01 BMatC= 1.59D-06 BMatP= 9.53D-06
 IDIUse=1 WtCom= 1.00D+00 WtEn= 0.00D+00
 Coeff-Com: -0.809D-06-0.332D-04 0.421D-04 0.428D-04-0.648D-04-0.206D-03
 Coeff-Com:  0.959D-04-0.513D-04 0.127D-04-0.204D-03 0.204D-03 0.359D-02
 Coeff-Com:  0.454D-03-0.132D-02-0.419D-01-0.651D-01-0.436D-01 0.196D+00
 Coeff-Com:  0.483D+00 0.468D+00
 Coeff:     -0.809D-06-0.332D-04 0.421D-04 0.428D-04-0.648D-04-0.206D-03
 Coeff:      0.959D-04-0.513D-04 0.127D-04-0.204D-03 0.204D-03 0.359D-02
 Coeff:      0.454D-03-0.132D-02-0.419D-01-0.651D-01-0.436D-01 0.196D+00
 Coeff:      0.483D+00 0.468D+00
 Gap=     0.079 Goal=   None    Shift=    0.000
 Gap=     0.068 Goal=   None    Shift=    0.000
 RMSDP=5.77D-07 MaxDP=8.33D-05 DE=-1.70D-06 OVMax= 2.09D-04

 Cycle  22  Pass 1  IDiag  1:
 RMSU=  5.77D-07    CP:  1.00D+00
 E= -5339.75984066772     Delta-E=       -0.000000315560 Rises=F Damp=F
 DIIS: error= 9.87D-06 at cycle  22 NSaved=  20.
 NSaved=20 IEnMin=20 EnMin= -5339.75984066772     IErMin=20 ErrMin= 9.87D-06
 ErrMax= 9.87D-06  0.00D+00 EMaxC= 1.00D-01 BMatC= 2.93D-07 BMatP= 1.59D-06
 IDIUse=1 WtCom= 1.00D+00 WtEn= 0.00D+00
 Coeff-Com:  0.161D-03-0.177D-03 0.541D-05-0.332D-04-0.197D-04 0.343D-04
 Coeff-Com: -0.285D-04-0.194D-03-0.503D-04 0.958D-04-0.454D-03 0.541D-03
 Coeff-Com:  0.292D-02-0.357D-02-0.182D-01-0.387D-01 0.932D-02 0.159D+00
 Coeff-Com:  0.301D+00 0.589D+00
 Coeff:      0.161D-03-0.177D-03 0.541D-05-0.332D-04-0.197D-04 0.343D-04
 Coeff:     -0.285D-04-0.194D-03-0.503D-04 0.958D-04-0.454D-03 0.541D-03
 Coeff:      0.292D-02-0.357D-02-0.182D-01-0.387D-01 0.932D-02 0.159D+00
 Coeff:      0.301D+00 0.589D+00
 Gap=     0.079 Goal=   None    Shift=    0.000
 Gap=     0.068 Goal=   None    Shift=    0.000
 RMSDP=2.80D-07 MaxDP=4.63D-05 DE=-3.16D-07 OVMax= 1.12D-04

 Cycle  23  Pass 1  IDiag  1:
 RMSU=  2.79D-07    CP:  1.00D+00  1.04D+00
 E= -5339.75984072716     Delta-E=       -0.000000059441 Rises=F Damp=F
 DIIS: error= 5.40D-06 at cycle  23 NSaved=  20.
 NSaved=20 IEnMin=20 EnMin= -5339.75984072716     IErMin=20 ErrMin= 5.40D-06
 ErrMax= 5.40D-06  0.00D+00 EMaxC= 1.00D-01 BMatC= 1.03D-07 BMatP= 2.93D-07
 IDIUse=1 WtCom= 1.00D+00 WtEn= 0.00D+00
 Coeff-Com:  0.145D-03-0.169D-03-0.140D-04 0.103D-04-0.733D-05-0.291D-05
 Coeff-Com: -0.186D-03 0.160D-04-0.536D-05-0.123D-02 0.597D-04 0.137D-02
 Coeff-Com:  0.595D-02 0.497D-02-0.804D-02-0.322D-01-0.677D-02 0.553D-01
 Coeff-Com:  0.342D+00 0.639D+00
 Coeff:      0.145D-03-0.169D-03-0.140D-04 0.103D-04-0.733D-05-0.291D-05
 Coeff:     -0.186D-03 0.160D-04-0.536D-05-0.123D-02 0.597D-04 0.137D-02
 Coeff:      0.595D-02 0.497D-02-0.804D-02-0.322D-01-0.677D-02 0.553D-01
 Coeff:      0.342D+00 0.639D+00
 Gap=     0.079 Goal=   None    Shift=    0.000
 Gap=     0.068 Goal=   None    Shift=    0.000
 RMSDP=1.36D-07 MaxDP=2.48D-05 DE=-5.94D-08 OVMax= 5.86D-05

 Cycle  24  Pass 1  IDiag  1:
 RMSU=  1.14D-07    CP:  1.00D+00  1.17D+00  1.05D+00
 E= -5339.75984074653     Delta-E=       -0.000000019367 Rises=F Damp=F
 DIIS: error= 2.67D-06 at cycle  24 NSaved=  20.
 NSaved=20 IEnMin=20 EnMin= -5339.75984074653     IErMin=20 ErrMin= 2.67D-06
 ErrMax= 2.67D-06  0.00D+00 EMaxC= 1.00D-01 BMatC= 3.46D-08 BMatP= 1.03D-07
 IDIUse=1 WtCom= 1.00D+00 WtEn= 0.00D+00
 Coeff-Com:  0.876D-04-0.106D-03-0.146D-04-0.103D-05-0.129D-04-0.112D-03
 Coeff-Com:  0.217D-04 0.106D-04-0.714D-03-0.209D-03 0.248D-03 0.422D-02
 Coeff-Com:  0.576D-02-0.195D-03-0.193D-01-0.172D-01 0.297D-02 0.122D+00
 Coeff-Com:  0.368D+00 0.535D+00
 Coeff:      0.876D-04-0.106D-03-0.146D-04-0.103D-05-0.129D-04-0.112D-03
 Coeff:      0.217D-04 0.106D-04-0.714D-03-0.209D-03 0.248D-03 0.422D-02
 Coeff:      0.576D-02-0.195D-03-0.193D-01-0.172D-01 0.297D-02 0.122D+00
 Coeff:      0.368D+00 0.535D+00
 Gap=     0.079 Goal=   None    Shift=    0.000
 Gap=     0.068 Goal=   None    Shift=    0.000
 RMSDP=7.85D-08 MaxDP=1.24D-05 DE=-1.94D-08 OVMax= 3.21D-05

 Cycle  25  Pass 1  IDiag  1:
 RMSU=  7.29D-08    CP:  1.00D+00  1.20D+00  1.13D+00  1.02D+00
 E= -5339.75984075284     Delta-E=       -0.000000006316 Rises=F Damp=F
 DIIS: error= 2.28D-06 at cycle  25 NSaved=  20.
 NSaved=20 IEnMin=20 EnMin= -5339.75984075284     IErMin=20 ErrMin= 2.28D-06
 ErrMax= 2.28D-06  0.00D+00 EMaxC= 1.00D-01 BMatC= 1.50D-08 BMatP= 3.46D-08
 IDIUse=1 WtCom= 1.00D+00 WtEn= 0.00D+00
 Coeff-Com:  0.316D-04-0.387D-04-0.741D-07-0.386D-05-0.458D-04 0.617D-05
 Coeff-Com:  0.492D-06-0.164D-04-0.344D-03-0.743D-03 0.164D-02 0.478D-02
 Coeff-Com:  0.651D-02-0.606D-02-0.279D-01-0.399D-01-0.988D-01-0.698D-01
 Coeff-Com:  0.378D+00 0.853D+00
 Coeff:      0.316D-04-0.387D-04-0.741D-07-0.386D-05-0.458D-04 0.617D-05
 Coeff:      0.492D-06-0.164D-04-0.344D-03-0.743D-03 0.164D-02 0.478D-02
 Coeff:      0.651D-02-0.606D-02-0.279D-01-0.399D-01-0.988D-01-0.698D-01
 Coeff:      0.378D+00 0.853D+00
 Gap=     0.079 Goal=   None    Shift=    0.000
 Gap=     0.068 Goal=   None    Shift=    0.000
 RMSDP=9.44D-08 MaxDP=2.15D-05 DE=-6.32D-09 OVMax= 5.28D-05

 Cycle  26  Pass 1  IDiag  1:
 RMSU=  4.51D-08    CP:  1.00D+00  1.27D+00  1.33D+00  1.41D+00  1.20D+00
 E= -5339.75984075729     Delta-E=       -0.000000004444 Rises=F Damp=F
 DIIS: error= 3.49D-06 at cycle  26 NSaved=  20.
 NSaved=20 IEnMin=20 EnMin= -5339.75984075729     IErMin=19 ErrMin= 2.28D-06
 ErrMax= 3.49D-06  0.00D+00 EMaxC= 1.00D-01 BMatC= 7.04D-09 BMatP= 1.50D-08
 IDIUse=1 WtCom= 1.00D+00 WtEn= 0.00D+00
 Coeff-Com: -0.374D-06 0.124D-05 0.136D-05-0.360D-05 0.111D-05-0.984D-05
 Coeff-Com:  0.152D-03-0.210D-03-0.722D-03 0.101D-02 0.412D-02 0.733D-02
 Coeff-Com: -0.367D-02-0.281D-01-0.430D-01-0.114D+00-0.120D+00 0.211D+00
 Coeff-Com:  0.697D+00 0.389D+00
 Coeff:     -0.374D-06 0.124D-05 0.136D-05-0.360D-05 0.111D-05-0.984D-05
 Coeff:      0.152D-03-0.210D-03-0.722D-03 0.101D-02 0.412D-02 0.733D-02
 Coeff:     -0.367D-02-0.281D-01-0.430D-01-0.114D+00-0.120D+00 0.211D+00
 Coeff:      0.697D+00 0.389D+00
 Gap=     0.079 Goal=   None    Shift=    0.000
 Gap=     0.068 Goal=   None    Shift=    0.000
 RMSDP=4.02D-08 MaxDP=6.73D-06 DE=-4.44D-09 OVMax= 1.68D-05

 Cycle  27  Pass 1  IDiag  1:
 RMSU=  2.57D-08    CP:  1.00D+00  1.30D+00  1.40D+00  1.52D+00  1.31D+00
                    CP:  8.24D-01
 E= -5339.75984075859     Delta-E=       -0.000000001301 Rises=F Damp=F
 DIIS: error= 1.66D-06 at cycle  27 NSaved=  20.
 NSaved=20 IEnMin=20 EnMin= -5339.75984075859     IErMin=20 ErrMin= 1.66D-06
 ErrMax= 1.66D-06  0.00D+00 EMaxC= 1.00D-01 BMatC= 1.45D-09 BMatP= 7.04D-09
 IDIUse=1 WtCom= 1.00D+00 WtEn= 0.00D+00
 Coeff-Com: -0.117D-06-0.237D-05-0.871D-05 0.414D-05-0.315D-05-0.603D-05
 Coeff-Com:  0.609D-04 0.110D-03 0.365D-03 0.365D-04-0.520D-03-0.155D-02
 Coeff-Com: -0.261D-02-0.137D-02-0.141D-01-0.333D-01-0.192D-01 0.456D-01
 Coeff-Com:  0.192D+00 0.835D+00
 Coeff:     -0.117D-06-0.237D-05-0.871D-05 0.414D-05-0.315D-05-0.603D-05
 Coeff:      0.609D-04 0.110D-03 0.365D-03 0.365D-04-0.520D-03-0.155D-02
 Coeff:     -0.261D-02-0.137D-02-0.141D-01-0.333D-01-0.192D-01 0.456D-01
 Coeff:      0.192D+00 0.835D+00
 Gap=     0.079 Goal=   None    Shift=    0.000
 Gap=     0.068 Goal=   None    Shift=    0.000
 RMSDP=2.47D-08 MaxDP=5.86D-06 DE=-1.30D-09 OVMax= 1.43D-05

 Cycle  28  Pass 1  IDiag  1:
 RMSU=  1.38D-08    CP:  1.00D+00  1.32D+00  1.45D+00  1.60D+00  1.39D+00
                    CP:  8.97D-01  1.03D+00
 E= -5339.75984075897     Delta-E=       -0.000000000386 Rises=F Damp=F
 DIIS: error= 1.13D-06 at cycle  28 NSaved=  20.
 NSaved=20 IEnMin=20 EnMin= -5339.75984075897     IErMin=20 ErrMin= 1.13D-06
 ErrMax= 1.13D-06  0.00D+00 EMaxC= 1.00D-01 BMatC= 9.90D-10 BMatP= 1.45D-09
 IDIUse=1 WtCom= 1.00D+00 WtEn= 0.00D+00
 Coeff-Com: -0.252D-05-0.827D-05 0.278D-05-0.231D-06-0.162D-04 0.102D-03
 Coeff-Com:  0.229D-03-0.124D-04-0.111D-02-0.218D-02-0.252D-03 0.468D-02
 Coeff-Com:  0.983D-02 0.122D-01-0.491D-02-0.596D-01-0.996D-01 0.712D-01
 Coeff-Com:  0.615D+00 0.454D+00
 Coeff:     -0.252D-05-0.827D-05 0.278D-05-0.231D-06-0.162D-04 0.102D-03
 Coeff:      0.229D-03-0.124D-04-0.111D-02-0.218D-02-0.252D-03 0.468D-02
 Coeff:      0.983D-02 0.122D-01-0.491D-02-0.596D-01-0.996D-01 0.712D-01
 Coeff:      0.615D+00 0.454D+00
 Gap=     0.079 Goal=   None    Shift=    0.000
 Gap=     0.068 Goal=   None    Shift=    0.000
 RMSDP=1.05D-08 MaxDP=2.01D-06 DE=-3.86D-10 OVMax= 4.67D-06

 Cycle  29  Pass 1  IDiag  1:
 RMSU=  8.15D-09    CP:  1.00D+00  1.32D+00  1.46D+00  1.62D+00  1.42D+00
                    CP:  9.57D-01  1.05D+00  8.95D-01
 E= -5339.75984075896     Delta-E=        0.000000000011 Rises=F Damp=F
 DIIS: error= 7.50D-07 at cycle  29 NSaved=  20.
 NSaved=20 IEnMin=19 EnMin= -5339.75984075897     IErMin=20 ErrMin= 7.50D-07
 ErrMax= 7.50D-07  0.00D+00 EMaxC= 1.00D-01 BMatC= 3.87D-10 BMatP= 9.90D-10
 IDIUse=1 WtCom= 1.00D+00 WtEn= 0.00D+00
 Coeff-Com: -0.849D-06-0.414D-05 0.109D-05 0.119D-04 0.680D-04 0.123D-03
 Coeff-Com: -0.914D-04-0.816D-03-0.143D-02-0.981D-04 0.350D-02 0.758D-02
[...]
     3  C(13)             -0.00460      -0.36932      -0.13178      -0.12319
     4  H(1)               0.00797       2.54532       0.90823       0.84903
     5  O(17)              0.09733      -4.21426      -1.50375      -1.40573
     6  O(17)              0.10026      -4.34135      -1.54910      -1.44812
     7  C(13)             -0.00351      -0.28208      -0.10065      -0.09409
     8  H(1)               0.00787       2.51148       0.89616       0.83774
     9  O(17)              0.07354      -3.18447      -1.13630      -1.06222
    10  O(17)              0.09669      -4.18670      -1.49392      -1.39653
    11  O(17)              0.08954      -3.87706      -1.38343      -1.29325
    12  C(13)             -0.00417      -0.33493      -0.11951      -0.11172
    13  H(1)               0.00756       2.41400       0.86137       0.80522
    14  O(17)              0.07346      -3.18094      -1.13504      -1.06105
    15  O(17)              0.12051      -5.21823      -1.86200      -1.74062
    16  C(13)             -0.00250      -0.20070      -0.07161      -0.06695
    17  H(1)               0.00725       2.31386       0.82564       0.77182
    18  Fe(57)             0.21915       2.27039       0.81013       0.75732
    19  O(17)              0.09115      -3.94658      -1.40824      -1.31644
    20  Fe(57)             0.62217       6.44564       2.29996       2.15003
    21  O(17)              0.10761      -4.65968      -1.66269      -1.55430
    22  O(17)              0.12011      -5.20094      -1.85583      -1.73485
    23  Fe(57)             0.62270       6.45114       2.30193       2.15187
    24  O(17)              0.32282     -13.97788      -4.98766      -4.66252
    25  C(13)             -0.00403      -0.32367      -0.11549      -0.10797
    26  H(1)               0.00809       2.58356       0.92188       0.86178
    27  C(13)             -0.00226      -0.18144      -0.06474      -0.06052
    28  H(1)               0.00717       2.28962       0.81699       0.76373
    29  N(14)              0.00098       0.02260       0.00806       0.00754
    30  N(14)              0.00062       0.01430       0.00510       0.00477
    31  O(17)              0.13540      -5.86285      -2.09201      -1.95564
    32  O(17)              0.05697      -2.46692      -0.88026      -0.82288
    33  H(1)              -0.00043      -0.13622      -0.04861      -0.04544
    34  H(1)              -0.00038      -0.12068      -0.04306      -0.04025
    35  O(17)              0.05352      -2.31752      -0.82695      -0.77304
    36  H(1)              -0.00035      -0.11174      -0.03987      -0.03727
    37  H(1)              -0.00045      -0.14432      -0.05150      -0.04814
 --------------------------------------------------------
       Center         ----  Spin Dipole Couplings  ----
                      3XX-RR        3YY-RR        3ZZ-RR
 --------------------------------------------------------
     1   Atom       -0.253162      0.057686      0.195476
     2   Atom       -0.126674      0.071532      0.055142
     3   Atom        0.009377     -0.001859     -0.007518
     4   Atom       -0.012262      0.006636      0.005627
     5   Atom        0.070947     -0.079029      0.008082
     6   Atom        0.039223     -0.144371      0.105148
     7   Atom        0.001022      0.018979     -0.020001
     8   Atom        0.004863     -0.004975      0.000113
     9   Atom       -0.002971     -0.108707      0.111678
    10   Atom       -0.001404     -0.074571      0.075975
    11   Atom       -0.072238     -0.099486      0.171724
    12   Atom        0.001902     -0.000844     -0.001058
    13   Atom       -0.001728     -0.007456      0.009184
    14   Atom       -0.123442     -0.003560      0.127002
    15   Atom       -0.199260      0.101434      0.097825
    16   Atom        0.012892     -0.019197      0.006305
    17   Atom       -0.012403      0.000574      0.011829
    18   Atom       -1.552871      0.125256      1.427615
    19   Atom       -0.017378     -0.056765      0.074143
    20   Atom        0.029402      0.076438     -0.105840
    21   Atom       -0.106454     -0.150705      0.257159
    22   Atom        0.074039     -0.144935      0.070896
    23   Atom        0.074441      0.036151     -0.110592
    24   Atom       -0.212926     -0.014677      0.227602
    25   Atom        0.006884     -0.007054      0.000171
    26   Atom       -0.000482     -0.010471      0.010954
    27   Atom       -0.005312      0.007396     -0.002084
    28   Atom        0.002620     -0.010521      0.007902
    29   Atom        0.022765     -0.009103     -0.013662
    30   Atom        0.026214     -0.008744     -0.017470
    31   Atom       -1.161064      0.117952      1.043112
    32   Atom       -0.147408      0.318561     -0.171154
    33   Atom       -0.040961      0.067485     -0.026524
    34   Atom       -0.034191      0.069767     -0.035577
    35   Atom        0.222597     -0.077232     -0.145365
    36   Atom        0.074952     -0.035898     -0.039054
    37   Atom        0.024902     -0.001712     -0.023189
 --------------------------------------------------------
                        XY            XZ            YZ
 --------------------------------------------------------
     1   Atom       -0.044117     -0.011613      0.299194
     2   Atom       -0.043617     -0.008709      0.179389
     3   Atom        0.019937     -0.003581      0.052843
     4   Atom        0.002036     -0.000661      0.030706
     5   Atom        0.146876      0.190828      0.132138
     6   Atom        0.116894      0.243744      0.139940
     7   Atom       -0.001188      0.051235      0.028094
     8   Atom        0.011779      0.026531      0.017132
     9   Atom       -0.048599      0.133089     -0.069188
    10   Atom        0.123515     -0.206332     -0.139530
    11   Atom        0.102032     -0.204019     -0.156236
    12   Atom       -0.013092     -0.045544     -0.037572
    13   Atom        0.007607     -0.025361     -0.018191
    14   Atom       -0.010407      0.034198     -0.142764
    15   Atom       -0.050484      0.111530     -0.290738
    16   Atom       -0.000022     -0.015597     -0.052770
    17   Atom       -0.002028      0.001333     -0.031261
    18   Atom       -1.941532      0.092255      0.277299
    19   Atom       -0.104297     -0.143992      0.087590
    20   Atom        0.000041      0.008983     -0.000156
    21   Atom       -0.151329     -0.233115      0.174265
    22   Atom       -0.148498      0.239361     -0.182595
    23   Atom       -0.015114      0.013210     -0.029908
    24   Atom       -0.229304      0.020536      0.026391
    25   Atom        0.020965     -0.050829      0.021049
    26   Atom       -0.004971     -0.028215      0.013940
    27   Atom        0.013504      0.055421     -0.007202
    28   Atom       -0.005545      0.029669     -0.011445
    29   Atom       -0.005293     -0.003091      0.000434
    30   Atom       -0.011068      0.002290     -0.001012
    31   Atom       -1.487368      0.156212      0.077384
    32   Atom       -0.010463     -0.002083     -0.002566
    33   Atom        0.022871     -0.015132     -0.039098
    34   Atom        0.031115      0.016289      0.031040
    35   Atom       -0.184863     -0.052287      0.019233
    36   Atom       -0.007930     -0.037205     -0.002288
    37   Atom       -0.053841     -0.035074      0.038227
 --------------------------------------------------------


 ---------------------------------------------------------------------------------
              Anisotropic Spin Dipole Couplings in Principal Axis System
 ---------------------------------------------------------------------------------

       Atom             a.u.   MegaHertz   Gauss  10(-4) cm-1        Axes

              Baa    -0.2640    19.102     6.816     6.372  0.9494  0.2736 -0.1542
     1 O(17)  Bbb    -0.1716    12.414     4.430     4.141 -0.3095  0.7322 -0.6067
              Bcc     0.4355   -31.516   -11.246   -10.513 -0.0531  0.6237  0.7799
 
              Baa    -0.1481    10.717     3.824     3.575  0.7984  0.4680 -0.3788
     2 O(17)  Bbb    -0.0986     7.135     2.546     2.380  0.5936 -0.5069  0.6251
              Bcc     0.2467   -17.851    -6.370    -5.955 -0.1005  0.7239  0.6825
 
              Baa    -0.0614    -8.244    -2.942    -2.750  0.2285 -0.6877  0.6891
     3 C(13)  Bbb     0.0096     1.289     0.460     0.430  0.9303 -0.0545 -0.3628
              Bcc     0.0518     6.955     2.482     2.320  0.2871  0.7240  0.6273
 
              Baa    -0.0249   -13.267    -4.734    -4.425  0.1492 -0.6951  0.7032
     4 H(1)   Bbb    -0.0120    -6.400    -2.284    -2.135  0.9886  0.0904 -0.1204
              Bcc     0.0369    19.668     7.018     6.560  0.0201  0.7132  0.7007
 
              Baa    -0.1759    12.728     4.542     4.246 -0.1761  0.8769 -0.4472
     5 O(17)  Bbb    -0.1527    11.049     3.943     3.686  0.7091 -0.2021 -0.6755
              Bcc     0.3286   -23.778    -8.484    -7.931  0.6828  0.4360  0.5863
 
              Baa    -0.2080    15.052     5.371     5.021 -0.1302  0.9390 -0.3183
     6 O(17)  Bbb    -0.1733    12.543     4.476     4.184  0.7738 -0.1045 -0.6247
              Bcc     0.3814   -27.595    -9.847    -9.205  0.6199  0.3276  0.7130
 
              Baa    -0.0678    -9.100    -3.247    -3.035 -0.5797 -0.2581  0.7729
     7 C(13)  Bbb     0.0153     2.049     0.731     0.683 -0.5451  0.8279 -0.1324
              Bcc     0.0525     7.051     2.516     2.352  0.6057  0.4980  0.6206
 
              Baa    -0.0258   -13.765    -4.912    -4.592 -0.5424 -0.3291  0.7730
     8 H(1)   Bbb    -0.0128    -6.837    -2.440    -2.281 -0.5365  0.8437 -0.0172
              Bcc     0.0386    20.602     7.351     6.872  0.6465  0.4240  0.6342
 
              Baa    -0.1305     9.445     3.370     3.151  0.1880  0.9668  0.1729
     9 O(17)  Bbb    -0.0904     6.542     2.334     2.182  0.8242 -0.0595 -0.5632
              Bcc     0.2209   -15.986    -5.704    -5.333  0.5342 -0.2484  0.8080
 
              Baa    -0.1746    12.635     4.509     4.215  0.8113 -0.3132  0.4936
    10 O(17)  Bbb    -0.1578    11.421     4.075     3.810  0.0127  0.8537  0.5207
              Bcc     0.3325   -24.056    -8.584    -8.024 -0.5845 -0.4162  0.6966
 
              Baa    -0.1940    14.039     5.009     4.683  0.8467 -0.4534  0.2786
    11 O(17)  Bbb    -0.1685    12.196     4.352     4.068  0.2597  0.8091  0.5272
              Bcc     0.3626   -26.234    -9.361    -8.751 -0.4644 -0.3740  0.8028
 
              Baa    -0.0660    -8.851    -3.158    -2.952  0.5474  0.4981  0.6725
    12 C(13)  Bbb     0.0131     1.752     0.625     0.584 -0.6213  0.7802 -0.0721
              Bcc     0.0529     7.099     2.533     2.368 -0.5606 -0.3783  0.7366
 
              Baa    -0.0250   -13.330    -4.757    -4.446  0.5902  0.4437  0.6743
    13 H(1)   Bbb    -0.0127    -6.783    -2.420    -2.263 -0.5907  0.8068 -0.0139
              Bcc     0.0377    20.113     7.177     6.709 -0.5502 -0.3901  0.7383
 
              Baa    -0.1296     9.377     3.346     3.128  0.9578 -0.1772 -0.2262
    14 O(17)  Bbb    -0.0925     6.696     2.389     2.233  0.2697  0.8259  0.4951
              Bcc     0.2221   -16.073    -5.735    -5.361  0.0991 -0.5352  0.8389
 
              Baa    -0.2512    18.176     6.486     6.063  0.8015 -0.3079 -0.5126
    15 O(17)  Bbb    -0.1607    11.629     4.150     3.879  0.5686  0.6576  0.4942
              Bcc     0.4119   -29.805   -10.635    -9.942  0.1849 -0.6876  0.7022
 
              Baa    -0.0620    -8.320    -2.969    -2.775  0.1303  0.7700  0.6246
    16 C(13)  Bbb     0.0102     1.372     0.490     0.458  0.9430 -0.2907  0.1617
              Bcc     0.0518     6.948     2.479     2.318 -0.3061 -0.5679  0.7640
 
              Baa    -0.0256   -13.659    -4.874    -4.556  0.0534  0.7673  0.6390
    17 H(1)   Bbb    -0.0125    -6.655    -2.375    -2.220  0.9975 -0.0115 -0.0695
              Bcc     0.0381    20.313     7.248     6.776  0.0460 -0.6411  0.7661
 
              Baa    -2.8412   -49.190   -17.552   -16.408  0.8332  0.5503 -0.0538
    18 Fe(57) Bbb     1.2388    21.447     7.653     7.154  0.4399 -0.6008  0.6674
              Bcc     1.6025    27.743     9.899     9.254 -0.3350  0.5797  0.7427
 
              Baa    -0.1494    10.812     3.858     3.606  0.7500  0.6156  0.2419
    19 O(17)  Bbb    -0.0898     6.495     2.317     2.166 -0.3397  0.6723 -0.6577
              Bcc     0.2392   -17.307    -6.175    -5.773 -0.5675  0.4111  0.7134
 
              Baa    -0.1064    -1.843    -0.658    -0.615 -0.0660  0.0009  0.9978
    20 Fe(57) Bbb     0.0300     0.519     0.185     0.173  0.9978 -0.0007  0.0660
              Bcc     0.0764     1.323     0.472     0.441  0.0007  1.0000 -0.0008
 
              Baa    -0.2831    20.486     7.310     6.833  0.7053  0.7047  0.0770
    21 O(17)  Bbb    -0.1708    12.361     4.411     4.123 -0.5569  0.6180 -0.5550
              Bcc     0.4539   -32.847   -11.721   -10.957 -0.4387  0.3485  0.8283
 
              Baa    -0.2499    18.083     6.452     6.032  0.0750  0.8897  0.4504
    22 O(17)  Bbb    -0.1607    11.629     4.150     3.879  0.7633  0.2394 -0.6001
              Bcc     0.4106   -29.712   -10.602    -9.911  0.6417 -0.3888  0.6611
 
              Baa    -0.1170    -2.025    -0.723    -0.676 -0.0530  0.1864  0.9811
    23 Fe(57) Bbb     0.0346     0.598     0.214     0.200  0.3937  0.9067 -0.1510
              Bcc     0.0824     1.427     0.509     0.476  0.9177 -0.3783  0.1214
 
              Baa    -0.3653    26.433     9.432     8.817  0.8339  0.5494 -0.0533
    24 O(17)  Bbb     0.1348    -9.753    -3.480    -3.253 -0.5516  0.8264 -0.1129
              Bcc     0.2305   -16.680    -5.952    -5.564 -0.0180  0.1236  0.9922
 
              Baa    -0.0631    -8.472    -3.023    -2.826  0.6066 -0.4680  0.6427
    25 C(13)  Bbb     0.0087     1.161     0.414     0.387  0.3069  0.8836  0.3538
              Bcc     0.0545     7.311     2.609     2.439  0.7334  0.0174 -0.6796
 
              Baa    -0.0256   -13.676    -4.880    -4.562  0.6546 -0.3840  0.6512
    26 H(1)   Bbb    -0.0124    -6.631    -2.366    -2.212  0.4720  0.8804  0.0447
              Bcc     0.0381    20.307     7.246     6.774 -0.5905  0.2781  0.7576
 
              Baa    -0.0623    -8.354    -2.981    -2.787  0.7071 -0.2070 -0.6761
    27 C(13)  Bbb     0.0101     1.354     0.483     0.452  0.0792  0.9734 -0.2151
              Bcc     0.0522     7.000     2.498     2.335  0.7026  0.0986  0.7047
 
              Baa    -0.0256   -13.645    -4.869    -4.551 -0.6703  0.2767  0.6886
    28 H(1)   Bbb    -0.0125    -6.691    -2.388    -2.232  0.3686  0.9295 -0.0146
              Bcc     0.0381    20.336     7.256     6.783  0.6441 -0.2440  0.7250
 
              Baa    -0.0139    -0.537    -0.192    -0.179  0.0844  0.0029  0.9964
    29 N(14)  Bbb    -0.0100    -0.384    -0.137    -0.128  0.1582  0.9873 -0.0162
              Bcc     0.0239     0.921     0.329     0.307  0.9838 -0.1590 -0.0828
 
              Baa    -0.0176    -0.680    -0.242    -0.227 -0.0342  0.0710  0.9969
    30 N(14)  Bbb    -0.0119    -0.460    -0.164    -0.154  0.2814  0.9578 -0.0586
              Bcc     0.0296     1.140     0.407     0.380  0.9590 -0.2785  0.0527
 
              Baa    -2.1500   155.569    55.511    51.892  0.8341  0.5489 -0.0541
    31 O(17)  Bbb     1.0440   -75.545   -26.956   -25.199 -0.1612  0.3364  0.9278
              Bcc     1.1059   -80.024   -28.555   -26.693 -0.5275  0.7652 -0.3691
 
              Baa    -0.1714    12.399     4.424     4.136  0.0897  0.0071  0.9959
    32 O(17)  Bbb    -0.1474    10.669     3.807     3.559  0.9957  0.0219 -0.0899
              Bcc     0.3188   -23.069    -8.232    -7.695 -0.0224  0.9997 -0.0051
 
              Baa    -0.0505   -26.970    -9.624    -8.996  0.8258  0.0266  0.5634
    33 H(1)   Bbb    -0.0366   -19.544    -6.974    -6.519 -0.5258  0.3978  0.7518
              Bcc     0.0872    46.514    16.597    15.516  0.2041  0.9171 -0.3425
 
              Baa    -0.0512   -27.318    -9.748    -9.112 -0.6779 -0.0142  0.7351
    34 H(1)   Bbb    -0.0367   -19.584    -6.988    -6.533  0.6833 -0.3812  0.6227
              Bcc     0.0879    46.902    16.736    15.645  0.2713  0.9244  0.2682
 
              Baa    -0.1671    12.088     4.313     4.032  0.4409  0.8391  0.3187
    35 O(17)  Bbb    -0.1503    10.875     3.880     3.627 -0.0359 -0.3384  0.9403
              Bcc     0.3173   -22.963    -8.194    -7.660  0.8969 -0.4260 -0.1191
 
              Baa    -0.0514   -27.440    -9.791    -9.153  0.2872  0.2815  0.9156
    36 H(1)   Bbb    -0.0350   -18.667    -6.661    -6.227 -0.0277  0.9579 -0.2859
              Bcc     0.0864    46.106    16.452    15.379  0.9575 -0.0568 -0.2829
 
              Baa    -0.0529   -28.247   -10.079    -9.422 -0.1675 -0.6966  0.6976
    37 H(1)   Bbb    -0.0373   -19.910    -7.105    -6.641  0.6934  0.4198  0.5856
              Bcc     0.0903    48.157    17.184    16.063  0.7008 -0.5818 -0.4127
 

 ---------------------------------------------------------------------------------

 No NMR shielding tensors so no spin-rotation constants.
 Leave Link  601 at Sat Feb  4 19:05:59 2023, MaxMem= 14763950080 cpu:              24.1 elap:              15.5
 (Enter /software/commercial/gaussian/g16/AVX2/g16/l9999.exe)
 Unable to Open any file for archive entry.
 1\1\GINC-NODE2013\FOpt\UM06L\Gen\C6H10Fe3N2O16(15)\SVICCHI\04-Feb-2023
 \0\\#p opt=(cartesian,maxcycle=500) gen um06l int=grid=ultrafine scf=(
 xqc,intrep,maxconventionalcycle=150) pop=(hirshfeld) nosymm\\FeFeFe-B-
 2xH2O\\0,15\O,1.6541035095,-2.1080599008,-1.5870748875\O,-0.5261687271
 ,-2.5135441637,-1.1740960779\C,0.5371499224,-2.6710633384,-1.786763744
 9\H,0.5274987877,-3.4017213488,-2.6157108953\O,1.8667971443,2.23607013
 89,1.1801838737\O,2.9461514719,0.2729445672,1.3821205431\C,2.738627608
 8,1.4755499302,1.6592910841\H,3.4109796113,1.9184952534,2.4149717438\O
 ,-2.1060493207,-0.1303049859,-1.4906900422\O,2.8095269119,0.4865385353
 ,-1.4382132782\O,1.3824513597,2.2139780779,-1.6241943426\C,2.384884741
 7,1.5418892988,-1.9581047988\H,2.9658230986,1.9315696097,-2.8134104424
 \O,-0.5844407792,-2.0985896717,1.7760497537\O,1.6099116996,-2.28185938
 58,1.2811873783\C,0.5763072194,-2.4894568584,1.9767020783\H,0.73387125
 15,-3.1064739424,2.8784508033\Fe,-1.396191604,-1.1410665194,0.15047271
 37\O,-2.2039121724,0.2749623413,1.4666018431\Fe,0.1484697429,1.8594466
 419,0.0291793386\O,-0.9041787067,2.1037913186,1.7007907266\O,-1.425527
 2638,1.9965242503,-1.1660604782\Fe,1.9818186055,-0.8439685398,-0.02861
 78312\O,0.2874234948,-0.0234079654,0.0400725815\C,-1.845343639,1.32405
 43688,2.0229543151\H,-2.4201763603,1.6331541303,2.9139962603\C,-2.0664
 568363,1.0816529535,-1.7557576387\H,-2.6727597784,1.4126627978,-2.6164
 610075\N,-5.5158195942,-0.072340759,0.4959107045\N,-4.9650388105,0.637
 7259783,-0.1297737529\O,-2.7444090283,-2.0315971098,0.2381351373\O,0.2
 402123621,4.0677713824,-0.0061805202\H,0.7105701577,4.2434197867,-0.83
 18883281\H,0.8796189835,4.2490234588,0.6957810488\O,3.9963245057,-1.71
 96366746,-0.3639061577\H,4.4700767774,-0.9866136039,-0.7781067892\H,3.
 7757436529,-2.3121590523,-1.0970299142\\Version=ES64L-G16RevC.02\HF=-5
 339.7598501\S2=56.086439\S2-1=0.\S2A=56.000546\RMSD=9.514e-09\RMSF=1.6
 59e-05\Dipole=2.7605231,1.6488456,-0.7125381\Quadrupole=-4.1571926,2.1
 732402,1.9839524,-1.9669394,-3.7635273,2.0992299\PG=C01 [X(C6H10Fe3N2O
 16)]\\@
 The archive entry for this job was punched.


 THE FIRST MORNING OF CREATION WROTE WHAT THE LAST DAWN OF
 RECKONING SHALL READ. -- OMAR KHAYYAM
 Job cpu time:       2 days 19 hours 55 minutes 31.7 seconds.
 Elapsed time:       1 days 10 hours 38 minutes 24.2 seconds.
 File lengths (MBytes):  RWF=    876 Int=      0 D2E=      0 Chk=     83 Scr=      1
 Normal termination of Gaussian 16 at Sat Feb  4 19:06:02 2023.
