 Entering Gaussian System, Link 0=g16
 Input=FeFeFe-B-2xH2O-counterpoise-opt.gjf
 Output=FeFeFe-B-2xH2O-counterpoise-opt.log
 AtFile(1): /zfs/curium/svicchi/00-MOF/01-Gaussian/zw-basis-set/def2-TZVP/H.gbs
            !----------------------------------------------------------------------
            ! Basis Set Exchange
            ! Version v0.9
            ! https://www.basissetexchange.org
            !----------------------------------------------------------------------
            !   Basis set: def2-TZVP
            ! Description: def2-TZVP
            !        Role: orbital
            !     Version: 1  (Data from Turbomole 7.3)
            !----------------------------------------------------------------------
            H     0
            S    3   1.00
                 34.0613410              0.60251978D-02
                  5.1235746              0.45021094D-01
                  1.1646626              0.20189726
            S    1   1.00
                  0.32723041             1.0000000
            S    1   1.00
                  0.10307241             1.0000000
            P    1   1.00
                  0.8000000              1.0000000
 AtFile(1): /zfs/curium/svicchi/00-MOF/01-Gaussian/zw-basis-set/def2-TZVP/O.gbs
            !----------------------------------------------------------------------
            ! Basis Set Exchange
            ! Version v0.9
            ! https://www.basissetexchange.org
            !----------------------------------------------------------------------
            !   Basis set: def2-TZVP
            ! Description: def2-TZVP
            !        Role: orbital
            !     Version: 1  (Data from Turbomole 7.3)
            !----------------------------------------------------------------------
            O     0
            S    6   1.00
              27032.3826310              0.21726302465D-03
               4052.3871392              0.16838662199D-02
                922.32722710             0.87395616265D-02
                261.24070989             0.35239968808D-01
                 85.354641351            0.11153519115
                 31.035035245            0.25588953961
            S    2   1.00
                 12.260860728            0.39768730901
                  4.9987076005           0.24627849430
            S    1   1.00
                  1.1703108158           1.0000000
            S    1   1.00
                  0.46474740994          1.0000000
            S    1   1.00
                  0.18504536357          1.0000000
            P    4   1.00
                 63.274954801            0.60685103418D-02
                 14.627049379            0.41912575824D-01
                  4.4501223456           0.16153841088
                  1.5275799647           0.35706951311
            P    1   1.00
                  0.52935117943           .44794207502
            P    1   1.00
                  0.17478421270           .24446069663
            D    1   1.00
                  2.31400000             1.0000000
            D    1   1.00
                  0.64500000             1.0000000
            F    1   1.00
                  1.42800000             1.0000000
 AtFile(1): /zfs/curium/svicchi/00-MOF/01-Gaussian/zw-basis-set/def2-TZVP/C.gbs
            !----------------------------------------------------------------------
            ! Basis Set Exchange
            ! Version v0.9
            ! https://www.basissetexchange.org
            !----------------------------------------------------------------------
            !   Basis set: def2-TZVP
            ! Description: def2-TZVP
            !        Role: orbital
            !     Version: 1  (Data from Turbomole 7.3)
            !----------------------------------------------------------------------
            C     0
            S    6   1.00
              13575.3496820              0.22245814352D-03
               2035.2333680              0.17232738252D-02
                463.22562359             0.89255715314D-02
                131.20019598             0.35727984502D-01
                 42.853015891            0.11076259931
                 15.584185766            0.24295627626
            S    2   1.00
                  6.2067138508           0.41440263448
                  2.5764896527           0.23744968655
            S    1   1.00
                  0.57696339419          1.0000000
            S    1   1.00
                  0.22972831358          1.0000000
            S    1   1.00
                  0.95164440028D-01      1.0000000
            P    4   1.00
                 34.697232244            0.53333657805D-02
                  7.9582622826           0.35864109092D-01
                  2.3780826883           0.14215873329
                  0.81433208183          0.34270471845
            P    1   1.00
                  0.28887547253           .46445822433
            P    1   1.00
                  0.10056823671           .24955789874
            D    1   1.00
                  1.09700000             1.0000000
            D    1   1.00
                  0.31800000             1.0000000
            F    1   1.00
                  0.76100000             1.0000000
 AtFile(1): /zfs/curium/svicchi/00-MOF/01-Gaussian/zw-basis-set/def2-TZVP/Fe.gbs
            !----------------------------------------------------------------------
            ! Basis Set Exchange
            ! Version v0.9
            ! https://www.basissetexchange.org
            !----------------------------------------------------------------------
            !   Basis set: def2-TZVP
            ! Description: def2-TZVP
            !        Role: orbital
            !     Version: 1  (Data from Turbomole 7.3)
            !----------------------------------------------------------------------
            Fe     0
            S    8   1.00
             300784.8463700              0.22806273096D-03
              45088.9705570              0.17681788761D-02
              10262.5163170              0.91927083490D-02
               2905.2897293              0.37355495807D-01
                946.11487137             0.12151108426
                339.87832894             0.28818881468
                131.94425588             0.41126612677
                 52.111494077            0.21518583573
            S    4   1.00
                329.48839267            -0.24745216477D-01
                101.92332739            -0.11683089050
                 16.240462745            0.55293621136
                  6.8840675801           0.53601640182
            S    2   1.00
                 10.470693782           -0.22912708577
                  1.7360039648           0.71159319984
            S    1   1.00
                  0.72577288979          1.0000000
            S    1   1.00
                  0.11595528203          1.0000000
            S    1   1.00
                  0.41968227746D-01      1.0000000
            P    6   1.00
               1585.3959970              0.23793960179D-02
                375.38006499             0.19253154755D-01
                120.31816501             0.90021836536D-01
                 44.788749031            0.25798172356
                 17.829278584            0.41492649744
                  7.2247153786           0.24207474784
            P    3   1.00
                 28.143219756           -0.29041755152D-01
                  3.8743241412           0.55312260343
                  1.5410752281           0.96771136842
            P    1   1.00
                  0.58285615250          1.0000000
            P    1   1.00
                  0.1349150              1.0000000
            D    4   1.00
                 61.996675034            0.11971972255D-01
                 17.873732552            0.73210135410D-01
                  6.2744782934           0.23103094314
                  2.3552337175           0.39910706494
            D    1   1.00
                  0.85432239901           .41391589765
            D    1   1.00
                  0.27869254413           .21909269782
            D    1   1.00
                  0.0910000              1.0000000
            F    1   1.00
                  1.5980000              1.0000000
 AtFile(1): /zfs/curium/svicchi/00-MOF/01-Gaussian/zw-basis-set/def2-TZVP/N.gbs
            !----------------------------------------------------------------------
            ! Basis Set Exchange
            ! Version v0.9
            ! https://www.basissetexchange.org
            !----------------------------------------------------------------------
            !   Basis set: def2-TZVP
            ! Description: def2-TZVP
            !        Role: orbital
            !     Version: 1  (Data from Turbomole 7.3)
            !----------------------------------------------------------------------
            N     0
            S    6   1.00
              19730.8006470              0.21887984991D-03
               2957.8958745              0.16960708803D-02
                673.22133595             0.87954603538D-02
                190.68249494             0.35359382605D-01
                 62.295441898            0.11095789217
                 22.654161182            0.24982972552
            S    2   1.00
                  8.9791477428           0.40623896148
                  3.6863002370           0.24338217176
            S    1   1.00
                  0.84660076805          1.0000000
            S    1   1.00
                  0.33647133771          1.0000000
            S    1   1.00
                  0.13647653675          1.0000000
            P    4   1.00
                 49.200380510            0.55552416751D-02
                 11.346790537            0.38052379723D-01
                  3.4273972411           0.14953671029
                  1.1785525134           0.34949305230
            P    1   1.00
                  0.41642204972           .45843153697
            P    1   1.00
                  0.14260826011           .24428771672
            D    1   1.00
                  1.65400000             1.0000000
            D    1   1.00
                  0.46900000             1.0000000
            F    1   1.00
                  1.09300000             1.0000000
 Initial command:
 /software/commercial/gaussian/g16/AVX2/g16/l1.exe "/scratch1/svicchi/G09-370167.pbs02/Gau-3294805.inp" -scrdir="/scratch1/svicchi/G09-370167.pbs02/"
 Entering Link 1 = /software/commercial/gaussian/g16/AVX2/g16/l1.exe PID=   3294806.
  
 Copyright (c) 1988-2021, Gaussian, Inc.  All Rights Reserved.
  
 This is part of the Gaussian(R) 16 program.  It is based on
 the Gaussian(R) 09 system (copyright 2009, Gaussian, Inc.),
 the Gaussian(R) 03 system (copyright 2003, Gaussian, Inc.),
 the Gaussian(R) 98 system (copyright 1998, Gaussian, Inc.),
 the Gaussian(R) 94 system (copyright 1995, Gaussian, Inc.),
 the Gaussian 92(TM) system (copyright 1992, Gaussian, Inc.),
 the Gaussian 90(TM) system (copyright 1990, Gaussian, Inc.),
 the Gaussian 88(TM) system (copyright 1988, Gaussian, Inc.),
 the Gaussian 86(TM) system (copyright 1986, Carnegie Mellon
 University), and the Gaussian 82(TM) system (copyright 1983,
 Carnegie Mellon University). Gaussian is a federally registered
 trademark of Gaussian, Inc.
  
 This software contains proprietary and confidential information,
 including trade secrets, belonging to Gaussian, Inc.
  
 This software is provided under written license and may be
 used, copied, transmitted, or stored only in accord with that
 written license.
  
 The following legend is applicable only to US Government
 contracts under FAR:
  
                    RESTRICTED RIGHTS LEGEND
  
 Use, reproduction and disclosure by the US Government is
 subject to restrictions as set forth in subparagraphs (a)
 and (c) of the Commercial Computer Software - Restricted
 Rights clause in FAR 52.227-19.
  
 Gaussian, Inc.
 340 Quinnipiac St., Bldg. 40, Wallingford CT 06492
  
  
 ---------------------------------------------------------------
 Warning -- This program may not be used in any manner that
 competes with the business of Gaussian, Inc. or will provide
 assistance to any competitor of Gaussian, Inc.  The licensee
 of this program is prohibited from giving any competitor of
 Gaussian, Inc. access to this program.  By using this program,
 the user acknowledges that Gaussian, Inc. is engaged in the
 business of creating and licensing software in the field of
 computational chemistry and represents and warrants to the
 licensee that it is not a competitor of Gaussian, Inc. and that
 it will not use this program in any manner prohibited above.
 ---------------------------------------------------------------
  

 Cite this work as:
 Gaussian 16, Revision C.02,
 M. J. Frisch, G. W. Trucks, H. B. Schlegel, G. E. Scuseria, 
 M. A. Robb, J. R. Cheeseman, G. Scalmani, V. Barone, 
 G. A. Petersson, H. Nakatsuji, X. Li, M. Caricato, A. V. Marenich, 
 J. Bloino, B. G. Janesko, R. Gomperts, B. Mennucci, H. P. Hratchian, 
 J. V. Ortiz, A. F. Izmaylov, J. L. Sonnenberg, D. Williams-Young, 
 F. Ding, F. Lipparini, F. Egidi, J. Goings, B. Peng, A. Petrone, 
 T. Henderson, D. Ranasinghe, V. G. Zakrzewski, J. Gao, N. Rega, 
 G. Zheng, W. Liang, M. Hada, M. Ehara, K. Toyota, R. Fukuda, 
 J. Hasegawa, M. Ishida, T. Nakajima, Y. Honda, O. Kitao, H. Nakai, 
 T. Vreven, K. Throssell, J. A. Montgomery, Jr., J. E. Peralta, 
 F. Ogliaro, M. J. Bearpark, J. J. Heyd, E. N. Brothers, K. N. Kudin, 
 V. N. Staroverov, T. A. Keith, R. Kobayashi, J. Normand, 
 K. Raghavachari, A. P. Rendell, J. C. Burant, S. S. Iyengar, 
 J. Tomasi, M. Cossi, J. M. Millam, M. Klene, C. Adamo, R. Cammi, 
 J. W. Ochterski, R. L. Martin, K. Morokuma, O. Farkas, 
 J. B. Foresman, and D. J. Fox, Gaussian, Inc., Wallingford CT, 2019.
 
 ******************************************
 Gaussian 16:  ES64L-G16RevC.02  7-Dec-2021
                 1-Apr-2023 
 ******************************************
 %NProcShared=2
 Will use up to    2 processors via shared memory.
 %mem=110gb
 %chk=/scratch1/svicchi/G09-370167.pbs02/00-opt/FeFeFe-B-2xH2O-counterpoise-opt.c
 hk
 ----------------------------------------------------------------------
 #p gen um06l int=grid=ultrafine scf=(xqc,intrep,maxconventionalcycle=1
 50) pop=(hirshfeld) nosymm counterpoise=4
 ----------------------------------------------------------------------
 1/38=1,62=4,172=1/1;
 2/12=2,15=1,17=6,18=5,40=1/2;
 1/38=1,53=2,62=4,63=1/22;
 3/5=7,11=2,25=1,30=1,74=-53,75=-5,116=2/1,2,3;
 4//1;
 5/5=2,8=3,13=1,17=20,38=5,85=150/2,8;
 6/7=2,8=2,9=2,10=2,28=1,79=1/1;
 1/53=2,62=4,63=1/22;
 3/5=7,6=11,11=2,25=1,30=1,74=-53,75=-5,82=7,116=2/1,2,3;
 4//1;
 5/5=2,8=3,13=1,17=20,38=5,85=150/2,8;
 6/7=2,8=2,9=2,10=2,28=1,79=1/1;
 1/53=2,62=4,63=1/22(-4);
 99/5=1,9=1/99;
 Leave Link    1 at Sat Apr  1 19:53:07 2023, MaxMem= 14763950080 cpu:               0.0 elap:               1.2
 (Enter /software/commercial/gaussian/g16/AVX2/g16/l101.exe)
 ---------------------------
 FeFeFe-B-2xH2O-counterpoise
 ---------------------------
 Symbolic Z-matrix:
 Charge =  0 Multiplicity =15 in supermolecule
 Charge =  0 Multiplicity =15 in fragment      1.
 Charge =  0 Multiplicity = 1 in fragment      2.
 Charge =  0 Multiplicity = 1 in fragment      3.
 Charge =  0 Multiplicity = 1 in fragment      4.
 O(fragment=1)         1.6541   -2.10806  -1.58708 
 O(fragment=1)        -0.52617  -2.51354  -1.1741 
 C(fragment=1)         0.53715  -2.67106  -1.78676 
 H(fragment=1)         0.5275   -3.40172  -2.61571 
 O(fragment=1)         1.8668    2.23607   1.18018 
 O(fragment=1)         2.94615   0.27295   1.38212 
 C(fragment=1)         2.73863   1.47555   1.65929 
 H(fragment=1)         3.41098   1.9185    2.41497 
 O(fragment=1)        -2.10605  -0.13031  -1.49069 
 O(fragment=1)         2.80953   0.48654  -1.43821 
 O(fragment=1)         1.38245   2.21398  -1.62419 
 C(fragment=1)         2.38489   1.54189  -1.95811 
 H(fragment=1)         2.96582   1.93157  -2.81341 
 O(fragment=1)        -0.58444  -2.09859   1.77605 
 O(fragment=1)         1.60991  -2.28186   1.28119 
 C(fragment=1)         0.57631  -2.48946   1.9767 
 H(fragment=1)         0.73387  -3.10647   2.87845 
 Fe(fragment=1)       -1.39619  -1.14107   0.15047 
 O(fragment=1)        -2.20391   0.27496   1.4666 
 Fe(fragment=1)        0.14847   1.85945   0.02918 
 O(fragment=1)        -0.90418   2.10379   1.70079 
 O(fragment=1)        -1.42553   1.99652  -1.16606 
 Fe(fragment=1)        1.98182  -0.84397  -0.02862 
 O(fragment=1)         0.28742  -0.02341   0.04007 
 C(fragment=1)        -1.84534   1.32405   2.02295 
 H(fragment=1)        -2.42018   1.63315   2.914 
 C(fragment=1)        -2.06646   1.08165  -1.75576 
 H(fragment=1)        -2.67276   1.41266  -2.61646 
 N(fragment=2)        -4.96504   0.63773  -0.12977 
 N(fragment=2)        -5.51582  -0.07234   0.49591 
 O(fragment=1)        -2.74441  -2.0316    0.23814 
 O(fragment=3)         0.24021   4.06777  -0.00618 
 H(fragment=3)         0.71057   4.24342  -0.83189 
 H(fragment=3)         0.87962   4.24902   0.69578 
 O(fragment=4)         3.99633  -1.71964  -0.36391 
 H(fragment=4)         4.47008  -0.98661  -0.77811 
 H(fragment=4)         3.77574  -2.31216  -1.09703 
 
 ITRead=  0  0  0  0  0  0  0  0  0  0  0  0  0  0  0  0  0  0  0  0
 ITRead=  0  0  0  0  0  0  0  0  0  0  0  0  0  0  0  0  0
 MicOpt= -1 -1 -1 -1 -1 -1 -1 -1 -1 -1 -1 -1 -1 -1 -1 -1 -1 -1 -1 -1
 MicOpt= -1 -1 -1 -1 -1 -1 -1 -1 -1 -1 -1 -1 -1 -1 -1 -1 -1
 NAtoms=     37 NQM=       37 NQMF=       0 NMMI=      0 NMMIF=      0
                NMic=       0 NMicF=      0.
                    Isotopes and Nuclear Properties:
 (Nuclear quadrupole moments (NQMom) in fm**2, nuclear magnetic moments (NMagM)
  in nuclear magnetons)

  Atom         1           2           3           4           5           6           7           8           9          10
 IAtWgt=          16          16          12           1          16          16          12           1          16          16
 AtmWgt=  15.9949146  15.9949146  12.0000000   1.0078250  15.9949146  15.9949146  12.0000000   1.0078250  15.9949146  15.9949146
 NucSpn=           0           0           0           1           0           0           0           1           0           0
 AtZEff=  -0.0000000  -0.0000000  -0.0000000  -0.0000000  -0.0000000  -0.0000000  -0.0000000  -0.0000000  -0.0000000  -0.0000000
 NQMom=    0.0000000   0.0000000   0.0000000   0.0000000   0.0000000   0.0000000   0.0000000   0.0000000   0.0000000   0.0000000
 NMagM=    0.0000000   0.0000000   0.0000000   2.7928460   0.0000000   0.0000000   0.0000000   2.7928460   0.0000000   0.0000000
 AtZNuc=   8.0000000   8.0000000   6.0000000   1.0000000   8.0000000   8.0000000   6.0000000   1.0000000   8.0000000   8.0000000

  Atom        11          12          13          14          15          16          17          18          19          20
 IAtWgt=          16          12           1          16          16          12           1          56          16          56
 AtmWgt=  15.9949146  12.0000000   1.0078250  15.9949146  15.9949146  12.0000000   1.0078250  55.9349393  15.9949146  55.9349393
 NucSpn=           0           0           1           0           0           0           1           0           0           0
 AtZEff=  -0.0000000  -0.0000000  -0.0000000  -0.0000000  -0.0000000  -0.0000000  -0.0000000  -0.0000000  -0.0000000  -0.0000000
 NQMom=    0.0000000   0.0000000   0.0000000   0.0000000   0.0000000   0.0000000   0.0000000   0.0000000   0.0000000   0.0000000
 NMagM=    0.0000000   0.0000000   2.7928460   0.0000000   0.0000000   0.0000000   2.7928460   0.0000000   0.0000000   0.0000000
 AtZNuc=   8.0000000   6.0000000   1.0000000   8.0000000   8.0000000   6.0000000   1.0000000  26.0000000   8.0000000  26.0000000

  Atom        21          22          23          24          25          26          27          28          29          30
 IAtWgt=          16          16          56          16          12           1          12           1          14          14
 AtmWgt=  15.9949146  15.9949146  55.9349393  15.9949146  12.0000000   1.0078250  12.0000000   1.0078250  14.0030740  14.0030740
 NucSpn=           0           0           0           0           0           1           0           1           2           2
 AtZEff=  -0.0000000  -0.0000000  -0.0000000  -0.0000000  -0.0000000  -0.0000000  -0.0000000  -0.0000000  -0.0000000  -0.0000000
 NQMom=    0.0000000   0.0000000   0.0000000   0.0000000   0.0000000   0.0000000   0.0000000   0.0000000   2.0440000   2.0440000
 NMagM=    0.0000000   0.0000000   0.0000000   0.0000000   0.0000000   2.7928460   0.0000000   2.7928460   0.4037610   0.4037610
 AtZNuc=   8.0000000   8.0000000  26.0000000   8.0000000   6.0000000   1.0000000   6.0000000   1.0000000   7.0000000   7.0000000

  Atom        31          32          33          34          35          36          37
 IAtWgt=          16          16           1           1          16           1           1
 AtmWgt=  15.9949146  15.9949146   1.0078250   1.0078250  15.9949146   1.0078250   1.0078250
 NucSpn=           0           0           1           1           0           1           1
 AtZEff=  -0.0000000  -0.0000000  -0.0000000  -0.0000000  -0.0000000  -0.0000000  -0.0000000
 NQMom=    0.0000000   0.0000000   0.0000000   0.0000000   0.0000000   0.0000000   0.0000000
 NMagM=    0.0000000   0.0000000   2.7928460   2.7928460   0.0000000   2.7928460   2.7928460
 AtZNuc=   8.0000000   8.0000000   1.0000000   1.0000000   8.0000000   1.0000000   1.0000000
 Leave Link  101 at Sat Apr  1 19:53:12 2023, MaxMem= 14763950080 cpu:               0.1 elap:               0.5
 (Enter /software/commercial/gaussian/g16/AVX2/g16/l202.exe)
                          Input orientation:                          
 ---------------------------------------------------------------------
 Center     Atomic      Atomic             Coordinates (Angstroms)
 Number     Number       Type             X           Y           Z
 ---------------------------------------------------------------------
      1          8           0        1.654104   -2.108060   -1.587075
      2          8           0       -0.526169   -2.513544   -1.174096
      3          6           0        0.537150   -2.671063   -1.786764
      4          1           0        0.527499   -3.401721   -2.615711
      5          8           0        1.866797    2.236070    1.180184
      6          8           0        2.946151    0.272945    1.382121
      7          6           0        2.738628    1.475550    1.659291
      8          1           0        3.410980    1.918495    2.414972
      9          8           0       -2.106049   -0.130305   -1.490690
     10          8           0        2.809527    0.486539   -1.438213
     11          8           0        1.382451    2.213978   -1.624194
     12          6           0        2.384885    1.541889   -1.958105
     13          1           0        2.965823    1.931570   -2.813410
     14          8           0       -0.584441   -2.098590    1.776050
     15          8           0        1.609912   -2.281859    1.281187
     16          6           0        0.576307   -2.489457    1.976702
     17          1           0        0.733871   -3.106474    2.878451
     18         26           0       -1.396192   -1.141067    0.150473
     19          8           0       -2.203912    0.274962    1.466602
     20         26           0        0.148470    1.859447    0.029179
     21          8           0       -0.904179    2.103791    1.700791
     22          8           0       -1.425527    1.996524   -1.166060
     23         26           0        1.981819   -0.843969   -0.028618
     24          8           0        0.287423   -0.023408    0.040073
     25          6           0       -1.845344    1.324054    2.022954
     26          1           0       -2.420176    1.633154    2.913996
     27          6           0       -2.066457    1.081653   -1.755758
     28          1           0       -2.672760    1.412663   -2.616461
     29          7           0       -4.965039    0.637726   -0.129774
     30          7           0       -5.515820   -0.072341    0.495911
     31          8           0       -2.744409   -2.031597    0.238135
     32          8           0        0.240212    4.067771   -0.006181
     33          1           0        0.710570    4.243420   -0.831888
     34          1           0        0.879619    4.249023    0.695781
     35          8           0        3.996325   -1.719637   -0.363906
     36          1           0        4.470077   -0.986614   -0.778107
     37          1           0        3.775744   -2.312159   -1.097030
 ---------------------------------------------------------------------
                    Distance matrix (angstroms):
                    1          2          3          4          5
     1  O    0.000000
     2  O    2.255784   0.000000
     3  C    1.266663   1.237264   0.000000
     4  H    2.000222   1.994324   1.105037   0.000000
     5  O    5.155039   5.816163   5.886484   6.927281   0.000000
     6  O    4.019290   5.133787   4.950990   5.944385   2.249365
     7  C    4.955537   5.882164   5.823762   6.852190   1.252207
     8  H    5.942738   6.930045   6.854015   7.869367   2.002513
     9  O    4.249654   2.876818   3.678262   4.347805   5.340113
    10  O    2.844135   4.494121   3.905846   4.659691   3.287187
    11  O    4.330726   5.118094   4.960301   5.766292   2.845982
    12  C    3.740833   5.053261   4.603525   5.321805   3.255635
    13  H    4.420760   5.885609   5.304402   5.867581   4.153236
    14  O    4.040023   2.979756   3.778801   4.714035   5.015267
    15  O    2.873863   3.262658   3.273320   4.196608   4.526353
    16  C    3.742675   3.338197   3.768049   4.682399   4.962903
    17  H    4.667396   4.285138   4.689618   5.505958   5.719301
    18  Fe   3.641216   2.096453   3.135536   4.057452   4.807542
    19  O    5.466994   4.190927   5.174638   6.135461   4.527544
    20  Fe   4.540961   4.585418   4.896350   5.900762   2.102214
    21  O    5.924066   5.452307   6.086025   7.140907   2.822559
    22  O    5.148688   4.598872   5.101347   5.920882   4.049894
    23  Fe   2.033251   3.223291   2.918290   3.917932   3.310751
    24  O    2.976777   2.887372   3.226418   4.303931   2.983206
    25  C    6.087516   5.166092   6.012586   7.034241   3.914336
    26  H    7.131345   6.123305   7.026322   8.038434   4.663448
    27  C    4.903600   3.954271   4.567560   5.250597   5.042115
    28  H    5.672467   4.701422   5.260108   5.780999   5.974955
    29  N    7.312737   5.542985   6.630821   7.257065   7.137554
    30  N    7.738914   5.800432   6.971543   7.568928   7.765309
    31  O    4.762789   2.673436   3.908678   4.552698   6.353240
    32  O    6.529870   6.727932   6.976427   7.917417   2.721832
    33  H    6.465436   6.877732   6.982259   7.852625   3.068346
    34  H    6.798806   7.155766   7.359885   8.344091   2.293719
    35  O    2.670770   4.662580   3.859485   4.464615   4.750444
    36  H    3.137160   5.239351   4.395756   4.975284   4.582321
    37  H    2.187043   4.307314   3.330621   3.747617   5.432879
                    6          7          8          9         10
     6  O    0.000000
     7  C    1.251458   0.000000
     8  H    1.997669   1.104224   0.000000
     9  O    5.825837   5.997670   7.063242   0.000000
    10  O    2.831708   3.252338   4.154429   4.954406   0.000000
    11  O    3.905214   3.628466   4.529581   4.205130   2.248373
    12  C    3.616953   3.635256   4.507605   4.814893   1.250749
    13  H    4.511530   4.501625   5.247315   5.632477   2.000927
    14  O    4.271351   4.881690   5.701630   4.106218   5.341666
    15  O    2.884917   3.941457   4.708746   5.110856   4.061803
    16  C    3.687893   4.527434   5.259039   4.978297   5.050294
    17  H    4.307396   5.147849   5.712446   6.001010   5.987627
    18  Fe   4.729940   5.120542   6.131703   2.054009   4.781328
    19  O    5.150756   5.089916   5.926856   2.986536   5.798042
    20  Fe   3.489192   3.084406   4.042211   3.369269   3.334567
    21  O    4.275347   3.696816   4.377783   4.076914   5.124496
    22  O    5.345607   5.059072   6.018445   2.256523   4.504421
    23  Fe   2.041474   2.966811   3.955356   4.399731   2.107679
    24  O    2.992950   3.298052   4.378098   2.843127   2.967555
    25  C    4.947112   4.600870   5.304336   3.811669   5.860796
    26  H    5.744064   5.311533   5.859422   4.754968   6.899728
    27  C    5.968797   5.908177   6.935244   1.241238   4.922420
    28  H    6.989977   6.897038   7.910947   1.992303   5.683436
    29  N    8.062619   7.952936   8.847248   3.258188   7.885350
    30  N    8.515254   8.478522   9.345265   3.946705   8.565313
    31  O    6.245165   6.662091   7.630902   2.647877   6.324346
    32  O    4.863146   3.966798   4.531571   5.033145   4.634363
    33  H    5.065997   4.240294   4.820746   5.243742   4.345964
    34  H    4.533300   3.475114   3.846397   5.733531   4.736535
    35  O    2.849887   3.985517   4.615279   6.405824   2.725773
    36  H    2.928383   3.873122   4.444896   6.669818   2.315890
    37  H    3.676571   4.797880   5.510503   6.285773   2.980384
                   11         12         13         14         15
    11  O    0.000000
    12  C    1.252228   0.000000
    13  H    2.000264   1.104938   0.000000
    14  O    5.833401   6.001158   7.064680   0.000000
    15  O    5.357754   5.070961   6.029693   2.256914   0.000000
    16  C    5.978179   5.916537   6.942654   1.241118   1.263003
    17  H    7.000120   6.908357   7.922170   1.992251   1.999672
    18  Fe   4.703895   5.093221   6.103513   2.053848   3.408311
    19  O    5.116132   5.864365   6.912960   2.890016   4.595320
    20  Fe   2.093333   3.008603   4.002873   4.388026   4.566591
    21  O    4.036873   4.951888   5.948494   4.215199   5.072539
    22  O    2.853404   3.918325   4.690622   5.112083   5.788564
    23  Fe   3.500878   3.094786   4.053017   3.378845   1.980260
    24  O    2.995792   3.292752   4.374715   2.842559   2.896540
    25  C    4.950991   5.813013   6.848855   3.655862   5.048923
    26  H    5.949159   6.843560   7.867733   4.311700   5.851068
    27  C    3.632415   4.479644   5.211989   4.978352   5.835404
    28  H    4.251051   5.101951   5.665834   5.998677   6.868947
    29  N    6.708837   7.627692   8.471984   5.505382   7.331082
    30  N    7.570221   8.429061   9.322314   5.482968   7.501645
    31  O    6.206783   6.625929   7.591138   2.652382   4.484496
    32  O    2.712789   3.845739   4.457897   6.471507   6.622024
    33  H    2.279870   3.371938   3.789096   6.978502   6.917598
    34  H    3.126745   4.078911   4.694386   6.603230   6.597609
    35  O    4.888148   3.971871   4.515896   5.070151   2.952523
    36  H    4.526929   3.483353   3.862776   5.771340   3.754850
    37  H    5.147006   4.186839   4.648781   5.226032   3.216778
                   16         17         18         19         20
    16  C    0.000000
    17  H    1.103942   0.000000
    18  Fe   3.007328   3.980183   0.000000
    19  O    3.953711   4.696594   2.095172   0.000000
    20  Fe   4.784230   5.755121   3.376948   3.179698   0.000000
    21  O    4.833828   5.587213   3.629692   2.255829   1.990493
    22  O    5.831665   6.860150   3.402734   3.240458   1.981124
    23  Fe   2.950323   3.889390   3.395777   4.583452   3.266951
    24  O    3.148870   4.214380   2.023835   2.886306   1.888007
    25  C    4.517676   5.197480   3.128058   1.240440   2.870031
    26  H    5.182022   5.693272   4.047457   1.996598   3.869279
    27  C    5.802438   6.845300   3.003907   3.324643   2.949045
    28  H    6.846906   7.888079   3.975813   4.264456   3.893375
    29  N    6.702464   7.452921   3.997413   3.209959   5.259833
    30  N    6.719316   7.344460   4.269993   3.468659   6.002818
    31  O    3.776163   4.497228   1.618152   2.668611   4.853106
    32  O    6.858719   7.748199   5.462083   4.746391   2.210512
    33  H    7.296426   8.233353   5.864826   5.433776   2.596290
    34  H    6.865848   7.673893   5.876202   5.088761   2.586312
    35  O    4.215162   4.804144   5.447804   6.765510   5.269758
    36  H    5.000895   5.641228   5.941315   7.153490   5.237181
    37  H    4.440232   5.068370   5.447627   7.001549   5.641610
                   21         22         23         24         25
    21  O    0.000000
    22  O    2.915844   0.000000
    23  Fe   4.473156   4.579539   0.000000
    24  O    2.950064   2.910168   1.883883   0.000000
    25  C    1.263950   3.286073   4.853499   3.208764   0.000000
    26  H    1.997902   4.215237   5.845740   4.281907   1.104505
    27  C    3.787266   1.263141   4.804120   3.160209   3.792929
    28  H    4.716376   2.000037   5.783980   4.228730   4.713453
    29  N    4.689445   3.930441   7.103836   5.296631   3.851984
    30  N    5.239706   4.875741   7.555470   5.821324   4.213570
    31  O    4.756810   4.465084   4.880456   3.641985   3.905674
    32  O    2.842640   2.900012   5.211419   4.091713   3.999364
    33  H    3.687803   3.118192   5.304983   4.375522   4.817211
    34  H    2.965468   3.722083   5.261004   4.362833   4.212156
    35  O    6.549543   6.621917   2.222037   4.098335   7.006158
    36  H    6.676688   6.618744   2.602597   4.369414   7.284893
    37  H    7.016416   6.754460   2.552499   4.324323   7.385999
                   26         27         28         29         30
    26  H    0.000000
    27  C    4.715493   0.000000
    28  H    5.540611   1.103622   0.000000
    29  N    4.090445   3.353010   3.469680   0.000000
    30  N    4.282390   4.277829   4.469350   1.095005   0.000000
    31  O    4.549259   3.758664   4.474011   3.491682   3.403800
    32  O    4.640308   4.159164   4.727427   6.234992   7.108061
    33  H    5.535947   4.308385   4.758656   6.760661   7.691344
    34  H    4.759401   4.972086   5.624525   6.919757   7.721125
    35  O    7.947159   6.822155   7.704674   9.269198   9.691944
    36  H    8.244416   6.925302   7.756043   9.595844  10.108272
    37  H    8.369184   6.788460   7.600406   9.275704   9.689551
                   31         32         33         34         35
    31  O    0.000000
    32  O    6.794847   0.000000
    33  H    7.242767   0.966375   0.000000
    34  H    7.265618   0.966667   1.537004   0.000000
    35  O    6.774752   6.908722   6.824459   6.816282   0.000000
    36  H    7.360268   6.635845   6.441276   6.517333   0.966088
    37  H    6.661364   7.375191   7.241630   7.392619   0.968096
                   36         37
    36  H    0.000000
    37  H    1.529993   0.000000
 Symmetry turned off by external request.
 Stoichiometry    C6H10Fe3N2O16(15)
 Framework group  C1[X(C6H10Fe3N2O16)]
 Deg. of freedom   105
 Full point group                 C1      NOp   1
 Rotational constants (GHZ):           0.2157378           0.1599964           0.1235048
 Leave Link  202 at Sat Apr  1 19:53:16 2023, MaxMem= 14763950080 cpu:               0.0 elap:               0.9
 (Enter /software/commercial/gaussian/g16/AVX2/g16/l122.exe)
 Counterpoise: doing full-system calculation.
 Leave Link  122 at Sat Apr  1 19:53:21 2023, MaxMem= 14763950080 cpu:               0.0 elap:               1.1
 (Enter /software/commercial/gaussian/g16/AVX2/g16/l301.exe)
 General basis read from cards:  (5D, 7F)
 Centers:       4      8     13     17     26     28     33     34     36     37
 S 3 1.00
     Exponent=  3.4061341000D+01 Coefficients=  6.0251978000D-03
     Exponent=  5.1235746000D+00 Coefficients=  4.5021094000D-02
     Exponent=  1.1646626000D+00 Coefficients=  2.0189726000D-01
 S 1 1.00
     Exponent=  3.2723041000D-01 Coefficients=  1.0000000000D+00
 S 1 1.00
     Exponent=  1.0307241000D-01 Coefficients=  1.0000000000D+00
 P 1 1.00
     Exponent=  8.0000000000D-01 Coefficients=  1.0000000000D+00
 ****
 Centers:       1      2      5      6      9     10     11     14     15     19
 Centers:      21     22     24     31     32     35
 S 6 1.00
     Exponent=  2.7032382631D+04 Coefficients=  2.1726302465D-04
     Exponent=  4.0523871392D+03 Coefficients=  1.6838662199D-03
     Exponent=  9.2232722710D+02 Coefficients=  8.7395616265D-03
     Exponent=  2.6124070989D+02 Coefficients=  3.5239968808D-02
     Exponent=  8.5354641351D+01 Coefficients=  1.1153519115D-01
     Exponent=  3.1035035245D+01 Coefficients=  2.5588953961D-01
 S 2 1.00
     Exponent=  1.2260860728D+01 Coefficients=  3.9768730901D-01
     Exponent=  4.9987076005D+00 Coefficients=  2.4627849430D-01
 S 1 1.00
     Exponent=  1.1703108158D+00 Coefficients=  1.0000000000D+00
 S 1 1.00
     Exponent=  4.6474740994D-01 Coefficients=  1.0000000000D+00
 S 1 1.00
     Exponent=  1.8504536357D-01 Coefficients=  1.0000000000D+00
 P 4 1.00
     Exponent=  6.3274954801D+01 Coefficients=  6.0685103418D-03
     Exponent=  1.4627049379D+01 Coefficients=  4.1912575824D-02
     Exponent=  4.4501223456D+00 Coefficients=  1.6153841088D-01
     Exponent=  1.5275799647D+00 Coefficients=  3.5706951311D-01
 P 1 1.00
     Exponent=  5.2935117943D-01 Coefficients=  4.4794207502D-01
 P 1 1.00
     Exponent=  1.7478421270D-01 Coefficients=  2.4446069663D-01
 D 1 1.00
     Exponent=  2.3140000000D+00 Coefficients=  1.0000000000D+00
 D 1 1.00
     Exponent=  6.4500000000D-01 Coefficients=  1.0000000000D+00
 F 1 1.00
     Exponent=  1.4280000000D+00 Coefficients=  1.0000000000D+00
 ****
 Centers:       3      7     12     16     25     27
 S 6 1.00
     Exponent=  1.3575349682D+04 Coefficients=  2.2245814352D-04
     Exponent=  2.0352333680D+03 Coefficients=  1.7232738252D-03
     Exponent=  4.6322562359D+02 Coefficients=  8.9255715314D-03
     Exponent=  1.3120019598D+02 Coefficients=  3.5727984502D-02
     Exponent=  4.2853015891D+01 Coefficients=  1.1076259931D-01
     Exponent=  1.5584185766D+01 Coefficients=  2.4295627626D-01
 S 2 1.00
     Exponent=  6.2067138508D+00 Coefficients=  4.1440263448D-01
     Exponent=  2.5764896527D+00 Coefficients=  2.3744968655D-01
 S 1 1.00
     Exponent=  5.7696339419D-01 Coefficients=  1.0000000000D+00
 S 1 1.00
     Exponent=  2.2972831358D-01 Coefficients=  1.0000000000D+00
 S 1 1.00
     Exponent=  9.5164440028D-02 Coefficients=  1.0000000000D+00
 P 4 1.00
     Exponent=  3.4697232244D+01 Coefficients=  5.3333657805D-03
     Exponent=  7.9582622826D+00 Coefficients=  3.5864109092D-02
     Exponent=  2.3780826883D+00 Coefficients=  1.4215873329D-01
     Exponent=  8.1433208183D-01 Coefficients=  3.4270471845D-01
 P 1 1.00
     Exponent=  2.8887547253D-01 Coefficients=  4.6445822433D-01
 P 1 1.00
     Exponent=  1.0056823671D-01 Coefficients=  2.4955789874D-01
 D 1 1.00
     Exponent=  1.0970000000D+00 Coefficients=  1.0000000000D+00
 D 1 1.00
     Exponent=  3.1800000000D-01 Coefficients=  1.0000000000D+00
 F 1 1.00
     Exponent=  7.6100000000D-01 Coefficients=  1.0000000000D+00
 ****
 Centers:      18     20     23
 S 8 1.00
     Exponent=  3.0078484637D+05 Coefficients=  2.2806273096D-04
     Exponent=  4.5088970557D+04 Coefficients=  1.7681788761D-03
     Exponent=  1.0262516317D+04 Coefficients=  9.1927083490D-03
     Exponent=  2.9052897293D+03 Coefficients=  3.7355495807D-02
     Exponent=  9.4611487137D+02 Coefficients=  1.2151108426D-01
     Exponent=  3.3987832894D+02 Coefficients=  2.8818881468D-01
     Exponent=  1.3194425588D+02 Coefficients=  4.1126612677D-01
     Exponent=  5.2111494077D+01 Coefficients=  2.1518583573D-01
 S 4 1.00
     Exponent=  3.2948839267D+02 Coefficients= -2.4745216477D-02
     Exponent=  1.0192332739D+02 Coefficients= -1.1683089050D-01
     Exponent=  1.6240462745D+01 Coefficients=  5.5293621136D-01
     Exponent=  6.8840675801D+00 Coefficients=  5.3601640182D-01
 S 2 1.00
     Exponent=  1.0470693782D+01 Coefficients= -2.2912708577D-01
     Exponent=  1.7360039648D+00 Coefficients=  7.1159319984D-01
 S 1 1.00
     Exponent=  7.2577288979D-01 Coefficients=  1.0000000000D+00
 S 1 1.00
     Exponent=  1.1595528203D-01 Coefficients=  1.0000000000D+00
 S 1 1.00
     Exponent=  4.1968227746D-02 Coefficients=  1.0000000000D+00
 P 6 1.00
     Exponent=  1.5853959970D+03 Coefficients=  2.3793960179D-03
     Exponent=  3.7538006499D+02 Coefficients=  1.9253154755D-02
     Exponent=  1.2031816501D+02 Coefficients=  9.0021836536D-02
     Exponent=  4.4788749031D+01 Coefficients=  2.5798172356D-01
     Exponent=  1.7829278584D+01 Coefficients=  4.1492649744D-01
     Exponent=  7.2247153786D+00 Coefficients=  2.4207474784D-01
 P 3 1.00
     Exponent=  2.8143219756D+01 Coefficients= -2.9041755152D-02
     Exponent=  3.8743241412D+00 Coefficients=  5.5312260343D-01
     Exponent=  1.5410752281D+00 Coefficients=  9.6771136842D-01
 P 1 1.00
     Exponent=  5.8285615250D-01 Coefficients=  1.0000000000D+00
 P 1 1.00
     Exponent=  1.3491500000D-01 Coefficients=  1.0000000000D+00
 D 4 1.00
     Exponent=  6.1996675034D+01 Coefficients=  1.1971972255D-02
     Exponent=  1.7873732552D+01 Coefficients=  7.3210135410D-02
     Exponent=  6.2744782934D+00 Coefficients=  2.3103094314D-01
     Exponent=  2.3552337175D+00 Coefficients=  3.9910706494D-01
 D 1 1.00
     Exponent=  8.5432239901D-01 Coefficients=  4.1391589765D-01
 D 1 1.00
     Exponent=  2.7869254413D-01 Coefficients=  2.1909269782D-01
 D 1 1.00
     Exponent=  9.1000000000D-02 Coefficients=  1.0000000000D+00
 F 1 1.00
     Exponent=  1.5980000000D+00 Coefficients=  1.0000000000D+00
 ****
 Centers:      29     30
 S 6 1.00
     Exponent=  1.9730800647D+04 Coefficients=  2.1887984991D-04
     Exponent=  2.9578958745D+03 Coefficients=  1.6960708803D-03
     Exponent=  6.7322133595D+02 Coefficients=  8.7954603538D-03
     Exponent=  1.9068249494D+02 Coefficients=  3.5359382605D-02
     Exponent=  6.2295441898D+01 Coefficients=  1.1095789217D-01
     Exponent=  2.2654161182D+01 Coefficients=  2.4982972552D-01
 S 2 1.00
     Exponent=  8.9791477428D+00 Coefficients=  4.0623896148D-01
     Exponent=  3.6863002370D+00 Coefficients=  2.4338217176D-01
 S 1 1.00
     Exponent=  8.4660076805D-01 Coefficients=  1.0000000000D+00
 S 1 1.00
     Exponent=  3.3647133771D-01 Coefficients=  1.0000000000D+00
 S 1 1.00
     Exponent=  1.3647653675D-01 Coefficients=  1.0000000000D+00
 P 4 1.00
     Exponent=  4.9200380510D+01 Coefficients=  5.5552416751D-03
     Exponent=  1.1346790537D+01 Coefficients=  3.8052379723D-02
     Exponent=  3.4273972411D+00 Coefficients=  1.4953671029D-01
     Exponent=  1.1785525134D+00 Coefficients=  3.4949305230D-01
 P 1 1.00
     Exponent=  4.1642204972D-01 Coefficients=  4.5843153697D-01
 P 1 1.00
     Exponent=  1.4260826011D-01 Coefficients=  2.4428771672D-01
 D 1 1.00
     Exponent=  1.6540000000D+00 Coefficients=  1.0000000000D+00
 D 1 1.00
     Exponent=  4.6900000000D-01 Coefficients=  1.0000000000D+00
 F 1 1.00
     Exponent=  1.0930000000D+00 Coefficients=  1.0000000000D+00
 ****
 Ernie: Thresh=  0.10000D-02 Tol=  0.10000D-05 Strict=F.
   939 basis functions,  1610 primitive gaussians,  1080 cartesian basis functions
   140 alpha electrons      126 beta electrons
       nuclear repulsion energy      5062.9468341022 Hartrees.
 IExCor= 4134 DFT=T Ex+Corr=M06L ExCW=0 ScaHFX=  0.000000
 ScaDFX=  1.000000  1.000000  1.000000  1.000000 ScalE2=  1.000000  1.000000
 IRadAn=      5 IRanWt=     -1 IRanGd=            0 ICorTp=0 IEmpDi=  4
 NAtoms=   37 NActive=   37 NUniq=   37 SFac= 1.00D+00 NAtFMM=   60 NAOKFM=F Big=F
 Integral buffers will be    131072 words long.
 Raffenetti 2 integral format.
 Two-electron integral symmetry is turned off.
 Leave Link  301 at Sat Apr  1 19:53:26 2023, MaxMem= 14763950080 cpu:               0.1 elap:               1.0
 (Enter /software/commercial/gaussian/g16/AVX2/g16/l302.exe)
 NPDir=0 NMtPBC=     1 NCelOv=     1 NCel=       1 NClECP=     1 NCelD=      1
         NCelK=      1 NCelE2=     1 NClLst=     1 CellRange=     0.0.
 One-electron integrals computed using PRISM.
 NBasis=   939 RedAO= T EigKep=  2.02D-04  NBF=   939
 NBsUse=   939 1.00D-06 EigRej= -1.00D+00 NBFU=   939
 Precomputing XC quadrature grid using
 IXCGrd= 4 IRadAn=           5 IRanWt=          -1 IRanGd=           0 AccXCQ= 0.00D+00.
 Generated NRdTot=       0 NPtTot=           0 NUsed=           0 NTot=          32
 NSgBfM=  1060  1060  1060  1060  1060 MxSgAt=    37 MxSgA2=    37.
 Leave Link  302 at Sat Apr  1 19:53:34 2023, MaxMem= 14763950080 cpu:               3.1 elap:               4.7
 (Enter /software/commercial/gaussian/g16/AVX2/g16/l303.exe)
 DipDrv:  MaxL=1.
 Leave Link  303 at Sat Apr  1 19:53:42 2023, MaxMem= 14763950080 cpu:               0.2 elap:               2.4
 (Enter /software/commercial/gaussian/g16/AVX2/g16/l401.exe)
 ExpMin= 4.20D-02 ExpMax= 3.01D+05 ExpMxC= 2.91D+03 IAcc=3 IRadAn=         5 AccDes= 0.00D+00
 Harris functional with IExCor= 1009 and IRadAn=       5 diagonalized for initial guess.
 HarFok:  IExCor= 1009 AccDes= 0.00D+00 IRadAn=         5 IDoV= 1 UseB2=F ITyADJ=14
 ICtDFT=  3500011 ScaDFX=  1.000000  1.000000  1.000000  1.000000
 FoFCou: FMM=F IPFlag=           0 FMFlag=      100000 FMFlg1=           0
         NFxFlg=           0 DoJE=T BraDBF=F KetDBF=T FulRan=T
         wScrn=  0.000000 ICntrl=       500 IOpCl=  0 I1Cent=   200000004 NGrid=           0
         NMat0=    1 NMatS0=      1 NMatT0=    0 NMatD0=    1 NMtDS0=    0 NMtDT0=    0
 Symmetry not used in FoFCou.
 Harris En= -5337.46483630268    
 JPrj=0 DoOrth=F DoCkMO=F.
 Initial guess <Sx>= 0.0000 <Sy>= 0.0000 <Sz>= 7.0000 <S**2>=56.0000 S= 7.0000
 Leave Link  401 at Sat Apr  1 19:54:08 2023, MaxMem= 14763950080 cpu:              35.5 elap:              21.8
 (Enter /software/commercial/gaussian/g16/AVX2/g16/l502.exe)
 Two-electron integral symmetry not used.
 UHF open shell SCF:
 Using DIIS extrapolation, IDIIS=  1040.
 NGot= 14763950080 LenX= 14761603088 LenY= 14760435608
 Requested convergence on RMS density matrix=1.00D-08 within 150 cycles.
 Requested convergence on MAX density matrix=1.00D-06.
 Requested convergence on             energy=1.00D-06.
 No special actions if energy rises.
 Fock matrices will be formed incrementally for  20 cycles.

 Cycle   1  Pass 1  IDiag  1:
 FoFJK:  IHMeth= 1 ICntrl=     500 DoSepK=F KAlg= 0 I1Cent=           0 FoldK=F
 IRaf= 760000000 NMat=       1 IRICut=       1 DoRegI=T DoRafI=F ISym2E= 0 IDoP0=0 IntGTp=1.
 FoFCou: FMM=F IPFlag=           0 FMFlag=      100000 FMFlg1=           0
         NFxFlg=           0 DoJE=T BraDBF=F KetDBF=F FulRan=T
         wScrn=  0.000000 ICntrl=       500 IOpCl=  0 I1Cent=           0 NGrid=           0
         NMat0=    1 NMatS0=      1 NMatT0=    0 NMatD0=    1 NMtDS0=    0 NMtDT0=    0
 Symmetry not used in FoFCou.
 E= -5338.02482352496    
 DIIS: error= 6.87D-02 at cycle   1 NSaved=   1.
 NSaved= 1 IEnMin= 1 EnMin= -5338.02482352496     IErMin= 1 ErrMin= 6.87D-02
 ErrMax= 6.87D-02  0.00D+00 EMaxC= 1.00D-01 BMatC= 1.36D+01 BMatP= 1.36D+01
 IDIUse=3 WtCom= 3.13D-01 WtEn= 6.87D-01
 Coeff-Com:  0.100D+01
 Coeff-En:   0.100D+01
 Coeff:      0.100D+01
 Gap=     0.073 Goal=   None    Shift=    0.000
 Gap=    -0.406 Goal=   None    Shift=    0.000
 GapD=   -0.406 DampG=0.250 DampE=0.250 DampFc=0.1250 IDamp=-1.
 Damping current iteration by 1.25D-01
 RMSDP=3.79D-03 MaxDP=7.17D-01              OVMax= 9.76D-01

 Cycle   2  Pass 1  IDiag  1:
 RMSU=  4.73D-04    CP:  9.97D-01
 E= -5338.62887855667     Delta-E=       -0.604055031712 Rises=F Damp=T
 DIIS: error= 2.24D-02 at cycle   2 NSaved=   2.
 NSaved= 2 IEnMin= 2 EnMin= -5338.62887855667     IErMin= 2 ErrMin= 2.24D-02
 ErrMax= 2.24D-02  0.00D+00 EMaxC= 1.00D-01 BMatC= 3.09D+00 BMatP= 1.36D+01
 IDIUse=3 WtCom= 7.76D-01 WtEn= 2.24D-01
 Coeff-Com: -0.452D+00 0.145D+01
 Coeff-En:   0.109D+00 0.891D+00
 Coeff:     -0.327D+00 0.133D+01
 Gap=    -0.126 Goal=   None    Shift=    0.000
 Gap=    -0.072 Goal=   None    Shift=    0.000
 RMSDP=2.54D-03 MaxDP=2.82D-01 DE=-6.04D-01 OVMax= 9.99D-01

 Cycle   3  Pass 1  IDiag  1:
 RMSU=  2.51D-03    CP:  9.69D-01  1.53D+00
 E= -5320.48827587207     Delta-E=       18.140602684596 Rises=F Damp=F
 DIIS: error= 2.58D-01 at cycle   3 NSaved=   3.
 NSaved= 3 IEnMin= 2 EnMin= -5338.62887855667     IErMin= 2 ErrMin= 2.24D-02
 ErrMax= 2.58D-01  0.00D+00 EMaxC= 1.00D-01 BMatC= 7.89D+01 BMatP= 3.09D+00
 IDIUse=2 WtCom= 0.00D+00 WtEn= 1.00D+00
 EnCoef did     2 forward-backward iterations
 Coeff-En:   0.686D-01 0.891D+00 0.404D-01
 Coeff:      0.686D-01 0.891D+00 0.404D-01
 Gap=     0.074 Goal=   None    Shift=    0.000
 Gap=     0.012 Goal=   None    Shift=    0.000
 RMSDP=2.51D-03 MaxDP=2.90D-01 DE= 1.81D+01 OVMax= 8.58D-01

 Cycle   4  Pass 1  IDiag  1:
 RMSU=  1.42D-03    CP:  9.87D-01  2.66D+00  2.03D-01
 E= -5332.77213388895     Delta-E=      -12.283858016872 Rises=F Damp=F
 DIIS: error= 1.97D-01 at cycle   4 NSaved=   4.
 NSaved= 4 IEnMin= 2 EnMin= -5338.62887855667     IErMin= 2 ErrMin= 2.24D-02
 ErrMax= 1.97D-01  0.00D+00 EMaxC= 1.00D-01 BMatC= 4.90D+01 BMatP= 3.09D+00
 IDIUse=2 WtCom= 0.00D+00 WtEn= 1.00D+00
 EnCoef did   100 forward-backward iterations
 Coeff-En:   0.690D+00 0.254D-01 0.138D-04 0.285D+00
 Coeff:      0.690D+00 0.254D-01 0.138D-04 0.285D+00
 Gap=     0.063 Goal=   None    Shift=    0.000
 Gap=     0.043 Goal=   None    Shift=    0.000
 RMSDP=1.50D-03 MaxDP=2.92D-01 DE=-1.23D+01 OVMax= 8.11D-01

 Cycle   5  Pass 1  IDiag  1:
 RMSU=  1.13D-03    CP:  9.93D-01  1.65D+00  4.67D-02  4.56D-01
 E= -5337.61492870274     Delta-E=       -4.842794813796 Rises=F Damp=F
 DIIS: error= 7.06D-02 at cycle   5 NSaved=   5.
 NSaved= 5 IEnMin= 2 EnMin= -5338.62887855667     IErMin= 2 ErrMin= 2.24D-02
 ErrMax= 7.06D-02  0.00D+00 EMaxC= 1.00D-01 BMatC= 1.21D+01 BMatP= 3.09D+00
 IDIUse=2 WtCom= 0.00D+00 WtEn= 1.00D+00
 EnCoef did   100 forward-backward iterations
 Coeff-En:   0.577D+00 0.982D-02 0.343D-02 0.190D+00 0.220D+00
 Coeff:      0.577D+00 0.982D-02 0.343D-02 0.190D+00 0.220D+00
 Gap=     0.249 Goal=   None    Shift=    0.000
 Gap=     0.057 Goal=   None    Shift=    0.000
 RMSDP=1.64D-03 MaxDP=2.96D-01 DE=-4.84D+00 OVMax= 8.78D-01

 Cycle   6  Pass 1  IDiag  1:
 RMSU=  1.15D-03    CP:  9.91D-01  1.54D+00  2.86D-01  3.52D-01  1.29D-01
 E= -5335.51337369299     Delta-E=        2.101555009751 Rises=F Damp=F
 DIIS: error= 1.35D-01 at cycle   6 NSaved=   6.
 NSaved= 6 IEnMin= 2 EnMin= -5338.62887855667     IErMin= 2 ErrMin= 2.24D-02
 ErrMax= 1.35D-01  0.00D+00 EMaxC= 1.00D-01 BMatC= 2.61D+01 BMatP= 3.09D+00
 IDIUse=2 WtCom= 0.00D+00 WtEn= 1.00D+00
 EnCoef did   100 forward-backward iterations
 Coeff-En:   0.350D+00 0.969D-02 0.000D+00 0.371D-05 0.399D+00 0.241D+00
 Coeff:      0.350D+00 0.969D-02 0.000D+00 0.371D-05 0.399D+00 0.241D+00
 Gap=     0.007 Goal=   None    Shift=    0.000
 Gap=     0.025 Goal=   None    Shift=    0.000
 RMSDP=1.39D-03 MaxDP=3.03D-01 DE= 2.10D+00 OVMax= 5.66D-01

 Cycle   7  Pass 1  IDiag  1:
 RMSU=  7.76D-04    CP:  9.98D-01  1.01D+00  1.05D-01  4.25D-01  1.19D-01
                    CP:  1.15D-01
 E= -5339.13619602142     Delta-E=       -3.622822328434 Rises=F Damp=F
 DIIS: error= 3.21D-02 at cycle   7 NSaved=   7.
 NSaved= 7 IEnMin= 7 EnMin= -5339.13619602142     IErMin= 2 ErrMin= 2.24D-02
 ErrMax= 3.21D-02  0.00D+00 EMaxC= 1.00D-01 BMatC= 3.70D+00 BMatP= 3.09D+00
 IDIUse=2 WtCom= 0.00D+00 WtEn= 1.00D+00
 EnCoef did     4 forward-backward iterations
 Coeff-En:   0.191D+00 0.000D+00 0.000D+00 0.000D+00 0.275D+00 0.159D+00
 Coeff-En:   0.375D+00
 Coeff:      0.191D+00 0.000D+00 0.000D+00 0.000D+00 0.275D+00 0.159D+00
 Coeff:      0.375D+00
 Gap=     0.097 Goal=   None    Shift=    0.000
 Gap=     0.185 Goal=   None    Shift=    0.000
 RMSDP=1.21D-03 MaxDP=2.47D-01 DE=-3.62D+00 OVMax= 9.00D-01

 Cycle   8  Pass 1  IDiag  1:
 RMSU=  9.21D-04    CP:  9.95D-01  9.86D-01  1.98D-01  2.50D-01  2.85D-01
                    CP:  3.39D-01  1.93D-01
 E= -5338.34038584577     Delta-E=        0.795810175650 Rises=F Damp=F
 DIIS: error= 3.58D-02 at cycle   8 NSaved=   8.
 NSaved= 8 IEnMin= 7 EnMin= -5339.13619602142     IErMin= 2 ErrMin= 2.24D-02
 ErrMax= 3.58D-02  0.00D+00 EMaxC= 1.00D-01 BMatC= 7.06D+00 BMatP= 3.09D+00
 IDIUse=2 WtCom= 0.00D+00 WtEn= 1.00D+00
 EnCoef did     3 forward-backward iterations
 Coeff-En:   0.000D+00 0.000D+00 0.000D+00 0.000D+00 0.139D+00 0.000D+00
 Coeff-En:   0.539D+00 0.322D+00
 Coeff:      0.000D+00 0.000D+00 0.000D+00 0.000D+00 0.139D+00 0.000D+00
 Coeff:      0.539D+00 0.322D+00
 Gap=     0.011 Goal=   None    Shift=    0.000
 Gap=     0.116 Goal=   None    Shift=    0.000
 RMSDP=1.32D-03 MaxDP=2.32D-01 DE= 7.96D-01 OVMax= 8.13D-01

 Cycle   9  Pass 1  IDiag  1:
 RMSU=  8.07D-04    CP:  9.96D-01  1.28D+00  4.04D-02  3.56D-01  5.04D-01
                    CP:  1.97D-01  2.92D-01  2.98D-02
 E= -5338.26261896742     Delta-E=        0.077766878356 Rises=F Damp=F
 DIIS: error= 5.21D-02 at cycle   9 NSaved=   9.
 NSaved= 9 IEnMin= 7 EnMin= -5339.13619602142     IErMin= 2 ErrMin= 2.24D-02
 ErrMax= 5.21D-02  0.00D+00 EMaxC= 1.00D-01 BMatC= 7.63D+00 BMatP= 3.09D+00
 IDIUse=2 WtCom= 0.00D+00 WtEn= 1.00D+00
 EnCoef did    11 forward-backward iterations
 Coeff-En:   0.000D+00 0.000D+00 0.000D+00 0.000D+00 0.788D-01 0.000D+00
 Coeff-En:   0.381D+00 0.355D+00 0.185D+00
 Coeff:      0.000D+00 0.000D+00 0.000D+00 0.000D+00 0.788D-01 0.000D+00
 Coeff:      0.381D+00 0.355D+00 0.185D+00
 Gap=     0.159 Goal=   None    Shift=    0.000
 Gap=     0.002 Goal=   None    Shift=    0.000
 RMSDP=8.90D-04 MaxDP=2.00D-01 DE= 7.78D-02 OVMax= 9.12D-01

 Cycle  10  Pass 1  IDiag  1:
 RMSU=  4.10D-04    CP:  1.00D+00  9.24D-01  6.80D-02  3.16D-01  4.06D-01
                    CP:  1.08D-01  4.35D-01  2.07D-01  1.01D-01
 E= -5339.54784687927     Delta-E=       -1.285227911849 Rises=F Damp=F
 DIIS: error= 3.89D-02 at cycle  10 NSaved=  10.
 NSaved=10 IEnMin=10 EnMin= -5339.54784687927     IErMin= 2 ErrMin= 2.24D-02
 ErrMax= 3.89D-02  0.00D+00 EMaxC= 1.00D-01 BMatC= 1.33D+00 BMatP= 3.09D+00
 IDIUse=3 WtCom= 6.11D-01 WtEn= 3.89D-01
 EnCoef did    26 forward-backward iterations
 Coeff-Com: -0.225D+00 0.311D+00-0.765D-02-0.214D-01-0.149D-01 0.522D-01
 Coeff-Com:  0.199D+00 0.179D+00 0.621D-01 0.466D+00
 Coeff-En:   0.000D+00 0.000D+00 0.000D+00 0.182D-02 0.000D+00 0.259D-01
 Coeff-En:   0.160D+00 0.144D+00 0.115D+00 0.553D+00
 Coeff:     -0.137D+00 0.190D+00-0.467D-02-0.124D-01-0.909D-02 0.420D-01
 Coeff:      0.183D+00 0.165D+00 0.829D-01 0.500D+00
 Gap=     0.083 Goal=   None    Shift=    0.000
 Gap=     0.032 Goal=   None    Shift=    0.000
 RMSDP=6.61D-04 MaxDP=1.61D-01 DE=-1.29D+00 OVMax= 4.73D-01

 Cycle  11  Pass 1  IDiag  1:
 RMSU=  4.68D-04    CP:  9.98D-01  1.33D+00  9.23D-02  4.85D-01  2.22D-01
                    CP:  2.06D-01  4.39D-01  2.57D-01  1.30D-01  3.96D-01
 E= -5339.00726190933     Delta-E=        0.540584969933 Rises=F Damp=F
 DIIS: error= 9.27D-02 at cycle  11 NSaved=  11.
 NSaved=11 IEnMin=10 EnMin= -5339.54784687927     IErMin= 2 ErrMin= 2.24D-02
 ErrMax= 9.27D-02  0.00D+00 EMaxC= 1.00D-01 BMatC= 5.05D+00 BMatP= 1.33D+00
 IDIUse=2 WtCom= 0.00D+00 WtEn= 1.00D+00
 EnCoef did     1 forward-backward iterations
 Coeff-En:   0.000D+00 0.000D+00 0.000D+00 0.000D+00 0.000D+00 0.000D+00
 Coeff-En:   0.355D-01 0.000D+00 0.000D+00 0.654D+00 0.310D+00
 Coeff:      0.000D+00 0.000D+00 0.000D+00 0.000D+00 0.000D+00 0.000D+00
 Coeff:      0.355D-01 0.000D+00 0.000D+00 0.654D+00 0.310D+00
 Gap=     0.082 Goal=   None    Shift=    0.000
 Gap=     0.067 Goal=   None    Shift=    0.000
 RMSDP=5.72D-04 MaxDP=9.70D-02 DE= 5.41D-01 OVMax= 2.52D-01

 Cycle  12  Pass 1  IDiag  1:
 RMSU=  3.33D-04    CP:  1.00D+00  1.17D+00  8.83D-02  3.84D-01  2.43D-01
                    CP:  2.52D-01  6.25D-01  4.58D-02  2.09D-01  4.23D-01
                    CP:  2.48D-01
 E= -5339.50480705368     Delta-E=       -0.497545144348 Rises=F Damp=F
 DIIS: error= 2.31D-02 at cycle  12 NSaved=  12.
 NSaved=12 IEnMin=10 EnMin= -5339.54784687927     IErMin= 2 ErrMin= 2.24D-02
 ErrMax= 2.31D-02  0.00D+00 EMaxC= 1.00D-01 BMatC= 1.56D+00 BMatP= 1.33D+00
 IDIUse=2 WtCom= 0.00D+00 WtEn= 1.00D+00
 EnCoef did   100 forward-backward iterations
 Coeff-En:   0.000D+00 0.000D+00 0.000D+00 0.000D+00 0.000D+00 0.000D+00
 Coeff-En:   0.851D-02 0.000D+00 0.000D+00 0.564D+00 0.226D+00 0.201D+00
 Coeff:      0.000D+00 0.000D+00 0.000D+00 0.000D+00 0.000D+00 0.000D+00
 Coeff:      0.851D-02 0.000D+00 0.000D+00 0.564D+00 0.226D+00 0.201D+00
 Gap=     0.078 Goal=   None    Shift=    0.000
 Gap=     0.092 Goal=   None    Shift=    0.000
 RMSDP=3.98D-04 MaxDP=8.76D-02 DE=-4.98D-01 OVMax= 2.08D-01

 Cycle  13  Pass 1  IDiag  1:
 RMSU=  1.25D-04    CP:  1.00D+00  1.09D+00  8.23D-02  3.77D-01  2.76D-01
                    CP:  1.86D-01  5.31D-01  2.17D-01  9.79D-02  6.63D-01
                    CP:  5.07D-01  1.97D-01
 E= -5339.71312572604     Delta-E=       -0.208318672361 Rises=F Damp=F
 DIIS: error= 1.78D-02 at cycle  13 NSaved=  13.
 NSaved=13 IEnMin=13 EnMin= -5339.71312572604     IErMin=13 ErrMin= 1.78D-02
 ErrMax= 1.78D-02  0.00D+00 EMaxC= 1.00D-01 BMatC= 3.05D-01 BMatP= 1.33D+00
 IDIUse=3 WtCom= 8.22D-01 WtEn= 1.78D-01
 EnCoef did     1 forward-backward iterations
 Coeff-Com: -0.534D-01 0.553D-01 0.293D-02-0.106D-01 0.179D-03-0.554D-02
 Coeff-Com:  0.139D-01-0.943D-02 0.954D-02 0.321D+00 0.190D-01 0.126D+00
 Coeff-Com:  0.531D+00
 Coeff-En:   0.000D+00 0.000D+00 0.000D+00 0.000D+00 0.000D+00 0.000D+00
 Coeff-En:   0.000D+00 0.000D+00 0.000D+00 0.265D+00 0.000D+00 0.955D-01
 Coeff-En:   0.640D+00
 Coeff:     -0.439D-01 0.455D-01 0.241D-02-0.871D-02 0.147D-03-0.455D-02
 Coeff:      0.114D-01-0.775D-02 0.785D-02 0.311D+00 0.156D-01 0.121D+00
 Coeff:      0.550D+00
 Gap=     0.093 Goal=   None    Shift=    0.000
 Gap=     0.073 Goal=   None    Shift=    0.000
 RMSDP=1.60D-04 MaxDP=2.46D-02 DE=-2.08D-01 OVMax= 8.44D-02

 Cycle  14  Pass 1  IDiag  1:
 RMSU=  8.54D-05    CP:  1.00D+00  1.09D+00  7.63D-02  3.81D-01  3.13D-01
                    CP:  1.61D-01  5.28D-01  1.80D-01  1.26D-01  7.34D-01
                    CP:  3.54D-01  2.59D-01  3.15D-01
 E= -5339.75280811149     Delta-E=       -0.039682385448 Rises=F Damp=F
 DIIS: error= 3.54D-03 at cycle  14 NSaved=  14.
 NSaved=14 IEnMin=14 EnMin= -5339.75280811149     IErMin=14 ErrMin= 3.54D-03
 ErrMax= 3.54D-03  0.00D+00 EMaxC= 1.00D-01 BMatC= 3.57D-02 BMatP= 3.05D-01
 IDIUse=3 WtCom= 9.65D-01 WtEn= 3.54D-02
 EnCoef did     5 forward-backward iterations
 Coeff-Com: -0.292D-01 0.330D-01 0.564D-03-0.361D-02-0.103D-02-0.411D-04
 Coeff-Com:  0.216D-02-0.112D-01 0.931D-02 0.169D+00-0.416D-01 0.504D-01
 Coeff-Com:  0.466D+00 0.356D+00
 Coeff-En:   0.000D+00 0.000D+00 0.000D+00 0.000D+00 0.000D+00 0.000D+00
 Coeff-En:   0.000D+00 0.000D+00 0.000D+00 0.312D-01 0.000D+00 0.000D+00
 Coeff-En:   0.134D+00 0.835D+00
 Coeff:     -0.281D-01 0.318D-01 0.544D-03-0.348D-02-0.996D-03-0.396D-04
 Coeff:      0.208D-02-0.108D-01 0.898D-02 0.164D+00-0.401D-01 0.486D-01
 Coeff:      0.455D+00 0.373D+00
 Gap=     0.083 Goal=   None    Shift=    0.000
 Gap=     0.072 Goal=   None    Shift=    0.000
 RMSDP=7.52D-05 MaxDP=1.56D-02 DE=-3.97D-02 OVMax= 4.35D-02

 Cycle  15  Pass 1  IDiag  1:
 RMSU=  2.99D-05    CP:  1.00D+00  1.07D+00  7.63D-02  3.68D-01  3.12D-01
                    CP:  1.70D-01  5.26D-01  1.91D-01  1.19D-01  7.43D-01
                    CP:  3.72D-01  2.36D-01  6.36D-01  4.37D-01
 E= -5339.75842132991     Delta-E=       -0.005613218418 Rises=F Damp=F
 DIIS: error= 1.69D-03 at cycle  15 NSaved=  15.
 NSaved=15 IEnMin=15 EnMin= -5339.75842132991     IErMin=15 ErrMin= 1.69D-03
 ErrMax= 1.69D-03  0.00D+00 EMaxC= 1.00D-01 BMatC= 8.21D-03 BMatP= 3.57D-02
 IDIUse=3 WtCom= 9.83D-01 WtEn= 1.69D-02
 Coeff-Com: -0.185D-01 0.248D-01-0.206D-04 0.362D-03-0.101D-02-0.153D-02
 Coeff-Com:  0.169D-02-0.384D-02 0.177D-02 0.621D-01-0.226D-01 0.216D-01
 Coeff-Com:  0.113D+00 0.219D+00 0.604D+00
 Coeff-En:   0.000D+00 0.000D+00 0.000D+00 0.000D+00 0.000D+00 0.000D+00
 Coeff-En:   0.000D+00 0.000D+00 0.000D+00 0.000D+00 0.000D+00 0.000D+00
 Coeff-En:   0.000D+00 0.187D+00 0.813D+00
 Coeff:     -0.182D-01 0.244D-01-0.203D-04 0.356D-03-0.997D-03-0.151D-02
 Coeff:      0.166D-02-0.378D-02 0.174D-02 0.610D-01-0.222D-01 0.212D-01
 Coeff:      0.111D+00 0.218D+00 0.607D+00
 Gap=     0.079 Goal=   None    Shift=    0.000
 Gap=     0.070 Goal=   None    Shift=    0.000
 RMSDP=2.61D-05 MaxDP=3.18D-03 DE=-5.61D-03 OVMax= 1.21D-02

 Cycle  16  Pass 1  IDiag  1:
 RMSU=  1.67D-05    CP:  1.00D+00  1.07D+00  7.53D-02  3.68D-01  3.13D-01
                    CP:  1.67D-01  5.29D-01  1.87D-01  1.23D-01  7.51D-01
                    CP:  3.51D-01  2.57D-01  5.84D-01  5.55D-01  7.83D-01
 E= -5339.75960337404     Delta-E=       -0.001182044132 Rises=F Damp=F
 DIIS: error= 5.49D-04 at cycle  16 NSaved=  16.
 NSaved=16 IEnMin=16 EnMin= -5339.75960337404     IErMin=16 ErrMin= 5.49D-04
 ErrMax= 5.49D-04  0.00D+00 EMaxC= 1.00D-01 BMatC= 1.25D-03 BMatP= 8.21D-03
 IDIUse=3 WtCom= 9.95D-01 WtEn= 5.49D-03
 Coeff-Com: -0.125D-01 0.163D-01-0.708D-05 0.420D-03 0.794D-04-0.109D-02
 Coeff-Com:  0.257D-02-0.998D-03-0.317D-03 0.160D-01-0.201D-02 0.521D-02
 Coeff-Com: -0.295D-01 0.783D-01 0.423D+00 0.505D+00
 Coeff-En:   0.000D+00 0.000D+00 0.000D+00 0.000D+00 0.000D+00 0.000D+00
 Coeff-En:   0.000D+00 0.000D+00 0.000D+00 0.000D+00 0.000D+00 0.000D+00
 Coeff-En:   0.000D+00 0.000D+00 0.000D+00 0.100D+01
 Coeff:     -0.124D-01 0.162D-01-0.704D-05 0.418D-03 0.789D-04-0.109D-02
 Coeff:      0.255D-02-0.992D-03-0.315D-03 0.159D-01-0.200D-02 0.518D-02
 Coeff:     -0.293D-01 0.779D-01 0.421D+00 0.507D+00
 Gap=     0.079 Goal=   None    Shift=    0.000
 Gap=     0.069 Goal=   None    Shift=    0.000
 RMSDP=1.11D-05 MaxDP=1.22D-03 DE=-1.18D-03 OVMax= 3.43D-03

 Cycle  17  Pass 1  IDiag  1:
 RMSU=  7.43D-06    CP:  1.00D+00  1.07D+00  7.52D-02  3.68D-01  3.15D-01
                    CP:  1.66D-01  5.28D-01  1.87D-01  1.23D-01  7.55D-01
                    CP:  3.49D-01  2.55D-01  5.70D-01  5.64D-01  9.27D-01
                    CP:  6.40D-01
 E= -5339.75975639086     Delta-E=       -0.000153016816 Rises=F Damp=F
 DIIS: error= 5.20D-04 at cycle  17 NSaved=  17.
 NSaved=17 IEnMin=17 EnMin= -5339.75975639086     IErMin=17 ErrMin= 5.20D-04
 ErrMax= 5.20D-04  0.00D+00 EMaxC= 1.00D-01 BMatC= 4.59D-04 BMatP= 1.25D-03
 IDIUse=3 WtCom= 9.95D-01 WtEn= 5.20D-03
 Coeff-Com: -0.742D-02 0.891D-02-0.299D-05 0.318D-03 0.818D-03-0.801D-03
 Coeff-Com:  0.795D-03-0.654D-03 0.471D-03 0.249D-02 0.280D-02 0.148D-03
 Coeff-Com: -0.272D-01 0.210D-01 0.159D+00 0.334D+00 0.506D+00
 Coeff-En:   0.000D+00 0.000D+00 0.000D+00 0.000D+00 0.000D+00 0.000D+00
 Coeff-En:   0.000D+00 0.000D+00 0.000D+00 0.000D+00 0.000D+00 0.000D+00
 Coeff-En:   0.000D+00 0.000D+00 0.000D+00 0.000D+00 0.100D+01
 Coeff:     -0.738D-02 0.886D-02-0.297D-05 0.316D-03 0.814D-03-0.797D-03
 Coeff:      0.790D-03-0.651D-03 0.468D-03 0.248D-02 0.279D-02 0.148D-03
 Coeff:     -0.271D-01 0.208D-01 0.158D+00 0.332D+00 0.509D+00
 Gap=     0.079 Goal=   None    Shift=    0.000
 Gap=     0.069 Goal=   None    Shift=    0.000
 RMSDP=5.32D-06 MaxDP=4.97D-04 DE=-1.53D-04 OVMax= 1.44D-03

 Cycle  18  Pass 1  IDiag  1:
 RMSU=  4.23D-06    CP:  1.00D+00  1.07D+00  7.50D-02  3.68D-01  3.15D-01
                    CP:  1.66D-01  5.28D-01  1.87D-01  1.23D-01  7.55D-01
                    CP:  3.50D-01  2.55D-01  5.66D-01  5.74D-01  9.64D-01
                    CP:  7.29D-01  7.48D-01
 E= -5339.75980505992     Delta-E=       -0.000048669062 Rises=F Damp=F
 DIIS: error= 4.57D-04 at cycle  18 NSaved=  18.
 NSaved=18 IEnMin=18 EnMin= -5339.75980505992     IErMin=18 ErrMin= 4.57D-04
 ErrMax= 4.57D-04  0.00D+00 EMaxC= 1.00D-01 BMatC= 2.30D-04 BMatP= 4.59D-04
 IDIUse=3 WtCom= 9.95D-01 WtEn= 4.57D-03
 Coeff-Com: -0.422D-02 0.500D-02-0.557D-04 0.713D-04 0.743D-03-0.431D-03
 Coeff-Com: -0.126D-03-0.321D-03 0.869D-03-0.149D-02 0.317D-02-0.134D-02
 Coeff-Com: -0.169D-02-0.180D-02-0.289D-01 0.628D-01 0.364D+00 0.604D+00
 Coeff-En:   0.000D+00 0.000D+00 0.000D+00 0.000D+00 0.000D+00 0.000D+00
 Coeff-En:   0.000D+00 0.000D+00 0.000D+00 0.000D+00 0.000D+00 0.000D+00
 Coeff-En:   0.000D+00 0.000D+00 0.000D+00 0.000D+00 0.000D+00 0.100D+01
 Coeff:     -0.420D-02 0.498D-02-0.555D-04 0.709D-04 0.739D-03-0.429D-03
 Coeff:     -0.125D-03-0.319D-03 0.865D-03-0.149D-02 0.316D-02-0.133D-02
 Coeff:     -0.168D-02-0.180D-02-0.288D-01 0.625D-01 0.363D+00 0.605D+00
 Gap=     0.079 Goal=   None    Shift=    0.000
 Gap=     0.069 Goal=   None    Shift=    0.000
 RMSDP=3.51D-06 MaxDP=5.89D-04 DE=-4.87D-05 OVMax= 1.46D-03

 Cycle  19  Pass 1  IDiag  1:
 RMSU=  2.27D-06    CP:  1.00D+00  1.08D+00  7.49D-02  3.69D-01  3.15D-01
                    CP:  1.65D-01  5.27D-01  1.87D-01  1.24D-01  7.56D-01
                    CP:  3.51D-01  2.54D-01  5.67D-01  5.79D-01  9.85D-01
                    CP:  7.92D-01  9.55D-01  8.14D-01
 E= -5339.75983563698     Delta-E=       -0.000030577063 Rises=F Damp=F
 DIIS: error= 2.02D-04 at cycle  19 NSaved=  19.
 NSaved=19 IEnMin=19 EnMin= -5339.75983563698     IErMin=19 ErrMin= 2.02D-04
 ErrMax= 2.02D-04  0.00D+00 EMaxC= 1.00D-01 BMatC= 6.53D-05 BMatP= 2.30D-04
 IDIUse=3 WtCom= 9.98D-01 WtEn= 2.02D-03
 Coeff-Com: -0.151D-02 0.210D-02-0.738D-04-0.108D-03 0.298D-03-0.165D-03
 Coeff-Com: -0.156D-03-0.324D-04 0.593D-03-0.186D-02 0.192D-02-0.876D-03
 Coeff-Com:  0.102D-01-0.842D-02-0.911D-01-0.106D+00 0.258D-01 0.406D+00
 Coeff-Com:  0.763D+00
 Coeff-En:   0.000D+00 0.000D+00 0.000D+00 0.000D+00 0.000D+00 0.000D+00
 Coeff-En:   0.000D+00 0.000D+00 0.000D+00 0.000D+00 0.000D+00 0.000D+00
 Coeff-En:   0.000D+00 0.000D+00 0.000D+00 0.000D+00 0.000D+00 0.000D+00
 Coeff-En:   0.100D+01
 Coeff:     -0.151D-02 0.210D-02-0.737D-04-0.108D-03 0.298D-03-0.165D-03
 Coeff:     -0.155D-03-0.324D-04 0.592D-03-0.186D-02 0.192D-02-0.874D-03
 Coeff:      0.102D-01-0.840D-02-0.909D-01-0.106D+00 0.257D-01 0.405D+00
 Coeff:      0.764D+00
 Gap=     0.079 Goal=   None    Shift=    0.000
 Gap=     0.068 Goal=   None    Shift=    0.000
 RMSDP=2.85D-06 MaxDP=6.02D-04 DE=-3.06D-05 OVMax= 1.35D-03

 Cycle  20  Pass 1  IDiag  1:
 RMSU=  1.52D-06    CP:  1.00D+00  1.08D+00  7.48D-02  3.69D-01  3.15D-01
                    CP:  1.65D-01  5.27D-01  1.87D-01  1.24D-01  7.56D-01
                    CP:  3.53D-01  2.55D-01  5.64D-01  5.84D-01  1.01D+00
                    CP:  8.39D-01  1.09D+00  1.12D+00  1.02D+00
 E= -5339.75984657477     Delta-E=       -0.000010937791 Rises=F Damp=F
 DIIS: error= 9.54D-05 at cycle  20 NSaved=  20.
 NSaved=20 IEnMin=20 EnMin= -5339.75984657477     IErMin=20 ErrMin= 9.54D-05
 ErrMax= 9.54D-05  0.00D+00 EMaxC= 1.00D-01 BMatC= 1.51D-05 BMatP= 6.53D-05
 IDIUse=1 WtCom= 1.00D+00 WtEn= 0.00D+00
 Coeff-Com: -0.638D-04 0.290D-03-0.313D-04-0.427D-04 0.710D-04-0.781D-04
 Coeff-Com:  0.140D-04-0.136D-04 0.185D-03-0.821D-03 0.377D-03-0.107D-03
 Coeff-Com:  0.691D-02-0.613D-02-0.554D-01-0.983D-01-0.109D+00 0.699D-01
 Coeff-Com:  0.595D+00 0.597D+00
 Coeff:     -0.638D-04 0.290D-03-0.313D-04-0.427D-04 0.710D-04-0.781D-04
 Coeff:      0.140D-04-0.136D-04 0.185D-03-0.821D-03 0.377D-03-0.107D-03
 Coeff:      0.691D-02-0.613D-02-0.554D-01-0.983D-01-0.109D+00 0.699D-01
 Coeff:      0.595D+00 0.597D+00
 Gap=     0.079 Goal=   None    Shift=    0.000
 Gap=     0.068 Goal=   None    Shift=    0.000
 RMSDP=1.83D-06 MaxDP=3.08D-04 DE=-1.09D-05 OVMax= 7.22D-04

 Cycle  21  Pass 1  IDiag  1:
 Restarting incremental Fock formation.
 E= -5339.75984939597     Delta-E=       -0.000002821198 Rises=F Damp=F
 DIIS: error= 6.70D-05 at cycle  21 NSaved=  20.
 NSaved=20 IEnMin=20 EnMin= -5339.75984939597     IErMin=20 ErrMin= 6.70D-05
 ErrMax= 6.70D-05  0.00D+00 EMaxC= 1.00D-01 BMatC= 3.20D-06 BMatP= 1.51D-05
 IDIUse=1 WtCom= 1.00D+00 WtEn= 0.00D+00
 Coeff-Com:  0.832D-04-0.452D-04-0.500D-05 0.947D-05-0.280D-04 0.110D-03
 Coeff-Com: -0.539D-04 0.375D-04 0.203D-04-0.621D-04 0.571D-06 0.304D-02
 Coeff-Com: -0.349D-02-0.243D-01-0.508D-01-0.777D-01-0.158D-01 0.293D+00
 Coeff-Com:  0.432D+00 0.443D+00
 Coeff:      0.832D-04-0.452D-04-0.500D-05 0.947D-05-0.280D-04 0.110D-03
 Coeff:     -0.539D-04 0.375D-04 0.203D-04-0.621D-04 0.571D-06 0.304D-02
 Coeff:     -0.349D-02-0.243D-01-0.508D-01-0.777D-01-0.158D-01 0.293D+00
 Coeff:      0.432D+00 0.443D+00
 Gap=     0.079 Goal=   None    Shift=    0.000
 Gap=     0.068 Goal=   None    Shift=    0.000
 RMSDP=6.43D-07 MaxDP=7.21D-05 DE=-2.82D-06 OVMax= 2.22D-04

 Cycle  22  Pass 1  IDiag  1:
 RMSU=  6.43D-07    CP:  1.00D+00
 E= -5339.75984987995     Delta-E=       -0.000000483979 Rises=F Damp=F
 DIIS: error= 2.80D-05 at cycle  22 NSaved=  20.
 NSaved=20 IEnMin=20 EnMin= -5339.75984987995     IErMin=20 ErrMin= 2.80D-05
 ErrMax= 2.80D-05  0.00D+00 EMaxC= 1.00D-01 BMatC= 9.12D-07 BMatP= 3.20D-06
 IDIUse=1 WtCom= 1.00D+00 WtEn= 0.00D+00
 Coeff-Com:  0.856D-04-0.135D-03 0.542D-05-0.484D-05 0.679D-04-0.227D-04
 Coeff-Com: -0.255D-04 0.195D-03-0.143D-03 0.921D-04 0.673D-03-0.177D-02
 Coeff-Com: -0.701D-02-0.148D-01-0.263D-01-0.132D-01 0.781D-01 0.160D+00
 Coeff-Com:  0.314D+00 0.510D+00
 Coeff:      0.856D-04-0.135D-03 0.542D-05-0.484D-05 0.679D-04-0.227D-04
 Coeff:     -0.255D-04 0.195D-03-0.143D-03 0.921D-04 0.673D-03-0.177D-02
 Coeff:     -0.701D-02-0.148D-01-0.263D-01-0.132D-01 0.781D-01 0.160D+00
 Coeff:      0.314D+00 0.510D+00
 Gap=     0.079 Goal=   None    Shift=    0.000
 Gap=     0.068 Goal=   None    Shift=    0.000
 RMSDP=2.84D-07 MaxDP=3.24D-05 DE=-4.84D-07 OVMax= 1.05D-04

 Cycle  23  Pass 1  IDiag  1:
 RMSU=  2.83D-07    CP:  1.00D+00  9.72D-01
 E= -5339.75985002040     Delta-E=       -0.000000140455 Rises=F Damp=F
 DIIS: error= 1.54D-05 at cycle  23 NSaved=  20.
 NSaved=20 IEnMin=20 EnMin= -5339.75985002040     IErMin=20 ErrMin= 1.54D-05
 ErrMax= 1.54D-05  0.00D+00 EMaxC= 1.00D-01 BMatC= 2.67D-07 BMatP= 9.12D-07
 IDIUse=1 WtCom= 1.00D+00 WtEn= 0.00D+00
 Coeff-Com:  0.102D-03-0.133D-03-0.656D-05-0.240D-05 0.299D-05-0.235D-04
 Coeff-Com:  0.273D-04-0.748D-04 0.449D-04-0.520D-03-0.583D-03 0.142D-02
 Coeff-Com:  0.330D-02 0.305D-02 0.160D-02-0.228D-01-0.123D-01 0.636D-01
 Coeff-Com:  0.251D+00 0.712D+00
 Coeff:      0.102D-03-0.133D-03-0.656D-05-0.240D-05 0.299D-05-0.235D-04
 Coeff:      0.273D-04-0.748D-04 0.449D-04-0.520D-03-0.583D-03 0.142D-02
 Coeff:      0.330D-02 0.305D-02 0.160D-02-0.228D-01-0.123D-01 0.636D-01
 Coeff:      0.251D+00 0.712D+00
 Gap=     0.079 Goal=   None    Shift=    0.000
 Gap=     0.068 Goal=   None    Shift=    0.000
 RMSDP=2.04D-07 MaxDP=3.31D-05 DE=-1.40D-07 OVMax= 9.67D-05

 Cycle  24  Pass 1  IDiag  1:
 RMSU=  1.88D-07    CP:  1.00D+00  1.06D+00  1.21D+00
 E= -5339.75985006171     Delta-E=       -0.000000041306 Rises=F Damp=F
 DIIS: error= 5.46D-06 at cycle  24 NSaved=  20.
 NSaved=20 IEnMin=20 EnMin= -5339.75985006171     IErMin=20 ErrMin= 5.46D-06
 ErrMax= 5.46D-06  0.00D+00 EMaxC= 1.00D-01 BMatC= 9.32D-08 BMatP= 2.67D-07
 IDIUse=1 WtCom= 1.00D+00 WtEn= 0.00D+00
 Coeff-Com:  0.873D-04-0.981D-04-0.303D-04 0.967D-05-0.121D-04-0.962D-04
 Coeff-Com:  0.177D-07 0.390D-05-0.716D-03-0.198D-04 0.333D-02 0.746D-02
 Coeff-Com:  0.112D-01 0.780D-02-0.412D-01-0.582D-01-0.515D-01 0.330D-01
 Coeff-Com:  0.621D+00 0.468D+00
 Coeff:      0.873D-04-0.981D-04-0.303D-04 0.967D-05-0.121D-04-0.962D-04
 Coeff:      0.177D-07 0.390D-05-0.716D-03-0.198D-04 0.333D-02 0.746D-02
 Coeff:      0.112D-01 0.780D-02-0.412D-01-0.582D-01-0.515D-01 0.330D-01
 Coeff:      0.621D+00 0.468D+00
 Gap=     0.079 Goal=   None    Shift=    0.000
 Gap=     0.068 Goal=   None    Shift=    0.000
 RMSDP=1.30D-07 MaxDP=1.81D-05 DE=-4.13D-08 OVMax= 5.25D-05

 Cycle  25  Pass 1  IDiag  1:
 RMSU=  1.11D-07    CP:  1.00D+00  1.11D+00  1.41D+00  9.76D-01
 E= -5339.75985008142     Delta-E=       -0.000000019709 Rises=F Damp=F
 DIIS: error= 4.34D-06 at cycle  25 NSaved=  20.
 NSaved=20 IEnMin=20 EnMin= -5339.75985008142     IErMin=20 ErrMin= 4.34D-06
 ErrMax= 4.34D-06  0.00D+00 EMaxC= 1.00D-01 BMatC= 1.44D-08 BMatP= 9.32D-08
 IDIUse=1 WtCom= 1.00D+00 WtEn= 0.00D+00
 Coeff-Com:  0.152D-05-0.155D-04 0.464D-05-0.645D-07-0.380D-04 0.510D-05
 Coeff-Com: -0.206D-04-0.561D-04 0.455D-03 0.180D-02 0.278D-02 0.299D-02
 Coeff-Com:  0.668D-03-0.109D-01-0.202D-01-0.488D-01-0.879D-01 0.116D-01
 Coeff-Com:  0.245D+00 0.903D+00
 Coeff:      0.152D-05-0.155D-04 0.464D-05-0.645D-07-0.380D-04 0.510D-05
 Coeff:     -0.206D-04-0.561D-04 0.455D-03 0.180D-02 0.278D-02 0.299D-02
 Coeff:      0.668D-03-0.109D-01-0.202D-01-0.488D-01-0.879D-01 0.116D-01
 Coeff:      0.245D+00 0.903D+00
 Gap=     0.079 Goal=   None    Shift=    0.000
 Gap=     0.068 Goal=   None    Shift=    0.000
 RMSDP=1.04D-07 MaxDP=2.23D-05 DE=-1.97D-08 OVMax= 5.66D-05

 Cycle  26  Pass 1  IDiag  1:
 RMSU=  6.34D-08    CP:  1.00D+00  1.17D+00  1.59D+00  1.25D+00  1.13D+00
 E= -5339.75985008616     Delta-E=       -0.000000004744 Rises=F Damp=F
 DIIS: error= 4.38D-06 at cycle  26 NSaved=  20.
 NSaved=20 IEnMin=20 EnMin= -5339.75985008616     IErMin=19 ErrMin= 4.34D-06
 ErrMax= 4.38D-06  0.00D+00 EMaxC= 1.00D-01 BMatC= 1.15D-08 BMatP= 1.44D-08
 IDIUse=1 WtCom= 1.00D+00 WtEn= 0.00D+00
 Coeff-Com: -0.206D-05-0.104D-04 0.292D-05-0.227D-04 0.485D-05-0.116D-04
 Coeff-Com:  0.250D-03 0.190D-03-0.422D-03-0.123D-02-0.183D-02-0.183D-02
 Coeff-Com:  0.511D-02 0.378D-02-0.169D-01-0.564D-01-0.122D+00 0.508D-01
 Coeff-Com:  0.593D+00 0.548D+00
 Coeff:     -0.206D-05-0.104D-04 0.292D-05-0.227D-04 0.485D-05-0.116D-04
 Coeff:      0.250D-03 0.190D-03-0.422D-03-0.123D-02-0.183D-02-0.183D-02
 Coeff:      0.511D-02 0.378D-02-0.169D-01-0.564D-01-0.122D+00 0.508D-01
 Coeff:      0.593D+00 0.548D+00
 Gap=     0.079 Goal=   None    Shift=    0.000
 Gap=     0.068 Goal=   None    Shift=    0.000
 RMSDP=5.35D-08 MaxDP=1.42D-05 DE=-4.74D-09 OVMax= 3.36D-05

 Cycle  27  Pass 1  IDiag  1:
 RMSU=  3.81D-08    CP:  1.00D+00  1.21D+00  1.67D+00  1.32D+00  1.22D+00
                    CP:  1.04D+00
 E= -5339.75985008858     Delta-E=       -0.000000002412 Rises=F Damp=F
 DIIS: error= 1.06D-06 at cycle  27 NSaved=  20.
 NSaved=20 IEnMin=20 EnMin= -5339.75985008858     IErMin=20 ErrMin= 1.06D-06
 ErrMax= 1.06D-06  0.00D+00 EMaxC= 1.00D-01 BMatC= 1.21D-09 BMatP= 1.15D-08
 IDIUse=1 WtCom= 1.00D+00 WtEn= 0.00D+00
 Coeff-Com: -0.955D-06-0.223D-05-0.110D-04 0.125D-05-0.603D-05 0.179D-03
 Coeff-Com:  0.256D-04-0.685D-03-0.147D-02-0.180D-02-0.161D-02 0.605D-02
 Coeff-Com:  0.758D-02 0.176D-02-0.131D-01-0.852D-01-0.413D-01 0.123D+00
 Coeff-Com:  0.325D+00 0.682D+00
 Coeff:     -0.955D-06-0.223D-05-0.110D-04 0.125D-05-0.603D-05 0.179D-03
 Coeff:      0.256D-04-0.685D-03-0.147D-02-0.180D-02-0.161D-02 0.605D-02
 Coeff:      0.758D-02 0.176D-02-0.131D-01-0.852D-01-0.413D-01 0.123D+00
 Coeff:      0.325D+00 0.682D+00
 Gap=     0.079 Goal=   None    Shift=    0.000
 Gap=     0.068 Goal=   None    Shift=    0.000
 RMSDP=3.12D-08 MaxDP=6.89D-06 DE=-2.41D-09 OVMax= 1.62D-05

 Cycle  28  Pass 1  IDiag  1:
 RMSU=  1.79D-08    CP:  1.00D+00  1.23D+00  1.72D+00  1.39D+00  1.29D+00
                    CP:  1.23D+00  1.08D+00
 E= -5339.75985008855     Delta-E=        0.000000000022 Rises=F Damp=F
 DIIS: error= 7.61D-07 at cycle  28 NSaved=  20.
 NSaved=20 IEnMin=19 EnMin= -5339.75985008858     IErMin=20 ErrMin= 7.61D-07
 ErrMax= 7.61D-07  0.00D+00 EMaxC= 1.00D-01 BMatC= 7.51D-10 BMatP= 1.21D-09
 IDIUse=1 WtCom= 1.00D+00 WtEn= 0.00D+00
 Coeff-Com:  0.218D-05-0.888D-05 0.173D-05-0.310D-05 0.487D-04-0.135D-04
 Coeff-Com: -0.298D-03-0.667D-03-0.879D-03-0.103D-02 0.289D-02 0.443D-02
 Coeff-Com:  0.482D-02 0.350D-02-0.340D-01-0.421D-01-0.432D-01 0.106D+00
 Coeff-Com:  0.523D+00 0.477D+00
 Coeff:      0.218D-05-0.888D-05 0.173D-05-0.310D-05 0.487D-04-0.135D-04
 Coeff:     -0.298D-03-0.667D-03-0.879D-03-0.103D-02 0.289D-02 0.443D-02
 Coeff:      0.482D-02 0.350D-02-0.340D-01-0.421D-01-0.432D-01 0.106D+00
 Coeff:      0.523D+00 0.477D+00
 Gap=     0.079 Goal=   None    Shift=    0.000
 Gap=     0.068 Goal=   None    Shift=    0.000
 RMSDP=1.37D-08 MaxDP=2.30D-06 DE= 2.18D-11 OVMax= 5.79D-06

 Cycle  29  Pass 1  IDiag  1:
 RMSU=  8.23D-09    CP:  1.00D+00  1.23D+00  1.73D+00  1.41D+00  1.33D+00
                    CP:  1.30D+00  1.19D+00  7.36D-01
 E= -5339.75985008890     Delta-E=       -0.000000000342 Rises=F Damp=F
 DIIS: error= 5.94D-07 at cycle  29 NSaved=  20.
 NSaved=20 IEnMin=20 EnMin= -5339.75985008890     IErMin=20 ErrMin= 5.94D-07
 ErrMax= 5.94D-07  0.00D+00 EMaxC= 1.00D-01 BMatC= 2.54D-10 BMatP= 7.51D-10
 IDIUse=1 WtCom= 1.00D+00 WtEn= 0.00D+00
 Coeff-Com:  0.206D-05-0.312D-05-0.216D-06-0.208D-05-0.192D-05-0.344D-04
 Coeff-Com: -0.102D-03-0.206D-03-0.437D-03 0.360D-03 0.117D-02 0.305D-02
 Coeff-Com:  0.634D-02-0.105D-02-0.189D-01-0.602D-01-0.125D-01 0.200D+00
 Coeff-Com:  0.323D+00 0.559D+00
 Coeff:      0.206D-05-0.312D-05-0.216D-06-0.208D-05-0.192D-05-0.344D-04
 Coeff:     -0.102D-03-0.206D-03-0.437D-03 0.360D-03 0.117D-02 0.305D-02
 Coeff:      0.634D-02-0.105D-02-0.189D-01-0.602D-01-0.125D-01 0.200D+00
 Coeff:      0.323D+00 0.559D+00
 Gap=     0.079 Goal=   None    Shift=    0.000
 Gap=     0.068 Goal=   None    Shift=    0.000
 RMSDP=6.26D-09 MaxDP=1.19D-06 DE=-3.42D-10 OVMax= 2.83D-06

 Cycle  30  Pass 1  IDiag  1:
 RMSU=  4.20D-09    CP:  1.00D+00  1.24D+00  1.74D+00  1.41D+00  1.33D+00
                    CP:  1.33D+00  1.26D+00  7.99D-01  8.74D-01
 E= -5339.75985008887     Delta-E=        0.000000000024 Rises=F Damp=F
 DIIS: error= 2.62D-07 at cycle  30 NSaved=  20.
 NSaved=20 IEnMin=19 EnMin= -5339.75985008890     IErMin=20 ErrMin= 2.62D-07
 ErrMax= 2.62D-07  0.00D+00 EMaxC= 1.00D-01 BMatC= 5.83D-11 BMatP= 2.54D-10
 IDIUse=1 WtCom= 1.00D+00 WtEn= 0.00D+00
 Coeff-Com:  0.137D-06 0.105D-05-0.858D-05 0.452D-05 0.272D-04 0.865D-04
 Coeff-Com:  0.104D-03 0.401D-04-0.517D-03-0.494D-03 0.654D-03 0.335D-02
 Coeff-Com:  0.930D-02-0.107D-02-0.298D-01-0.412D-01-0.968D-02 0.823D-01
 Coeff-Com:  0.400D+00 0.587D+00
 Coeff:      0.137D-06 0.105D-05-0.858D-05 0.452D-05 0.272D-04 0.865D-04
 Coeff:      0.104D-03 0.401D-04-0.517D-03-0.494D-03 0.654D-03 0.335D-02
 Coeff:      0.930D-02-0.107D-02-0.298D-01-0.412D-01-0.968D-02 0.823D-01
 Coeff:      0.400D+00 0.587D+00
 Gap=     0.079 Goal=   None    Shift=    0.000
 Gap=     0.068 Goal=   None    Shift=    0.000
 RMSDP=3.29D-09 MaxDP=6.60D-07 DE= 2.36D-11 OVMax= 1.55D-06

 SCF Done:  E(UM06L) =  -5339.75985009     A.U. after   30 cycles
            NFock= 30  Conv=0.33D-08     -V/T= 2.0017
 <Sx>= 0.0000 <Sy>= 0.0000 <Sz>= 7.0000 <S**2>=56.0864 S= 7.0058
 <L.S>=  0.00000000000    
 KE= 5.330654706054D+03 PE=-2.279805048299D+04 EE= 7.064689092749D+03
 Annihilation of the first spin contaminant:
 S**2 before annihilation    56.0864,   after    56.0005
 Leave Link  502 at Sat Apr  1 21:45:24 2023, MaxMem= 14763950080 cpu:           13028.7 elap:            6670.1
 (Enter /software/commercial/gaussian/g16/AVX2/g16/l508.exe)
 QCSCF skips out because SCF is already converged.
 Leave Link  508 at Sat Apr  1 21:59:31 2023, MaxMem= 14763950080 cpu:               0.0 elap:               1.4
 (Enter /software/commercial/gaussian/g16/AVX2/g16/l601.exe)
 Copying SCF densities to generalized density rwf, IOpCl= 1 IROHF=0.

 **********************************************************************

            Population analysis using the SCF Density.

 **********************************************************************

 Alpha  occ. eigenvalues -- -255.65156-255.65109-255.62345 -30.10217 -30.10174
 Alpha  occ. eigenvalues --  -30.06357 -25.87318 -25.87290 -25.87228 -25.87169
 Alpha  occ. eigenvalues --  -25.87142 -25.87101 -25.83859 -25.83817 -25.83433
 Alpha  occ. eigenvalues --  -19.02607 -19.02308 -18.99091 -18.99044 -18.99018
 Alpha  occ. eigenvalues --  -18.99004 -18.98451 -18.98395 -18.98328 -18.98143
 Alpha  occ. eigenvalues --  -18.97920 -18.97809 -18.97333 -18.97186 -18.96927
 Alpha  occ. eigenvalues --  -18.96521 -14.24184 -14.24041 -10.19051 -10.18920
 Alpha  occ. eigenvalues --  -10.17836 -10.17742 -10.17650 -10.17425  -3.67048
 Alpha  occ. eigenvalues --   -3.67009  -3.60207  -2.41181  -2.41174  -2.40981
[...]
            NFock= 11  Conv=0.33D-08     -V/T= 2.0033
 <Sx>= 0.0000 <Sy>= 0.0000 <Sz>= 0.0000 <S**2>= 0.0000 S= 0.0000
 <L.S>=  0.00000000000    
 KE= 7.619363541814D+01 PE=-1.991524292414D+02 EE= 3.741480293364D+01
 Annihilation of the first spin contaminant:
 S**2 before annihilation     0.0000,   after     0.0000
 Leave Link  502 at Sun Apr  2 02:10:48 2023, MaxMem= 14763950080 cpu:               4.0 elap:               6.1
 (Enter /software/commercial/gaussian/g16/AVX2/g16/l508.exe)
 QCSCF skips out because SCF is already converged.
 Leave Link  508 at Sun Apr  2 02:10:50 2023, MaxMem= 14763950080 cpu:               0.0 elap:               1.1
 (Enter /software/commercial/gaussian/g16/AVX2/g16/l601.exe)
 Copying SCF densities to generalized density rwf, IOpCl= 1 IROHF=0.

 **********************************************************************

            Population analysis using the SCF Density.

 **********************************************************************

 Alpha  occ. eigenvalues --  -18.96251  -0.98070  -0.48880  -0.34760  -0.26788
 Alpha virt. eigenvalues --    0.03247   0.09751   0.35113   0.39519   0.43662
 Alpha virt. eigenvalues --    0.44026   0.56427   0.57218   1.16432   1.18999
 Alpha virt. eigenvalues --    1.30145   1.52825   1.64745   1.76771   2.01265
 Alpha virt. eigenvalues --    2.09165   2.12910   2.32156   2.42002   2.62876
 Alpha virt. eigenvalues --    2.65260   2.69117   2.84341   3.73208   4.01363
 Alpha virt. eigenvalues --    5.23073   5.32821   5.50780   5.52299   5.58218
 Alpha virt. eigenvalues --    6.13061   6.32639   6.42737   6.48963   6.54790
 Alpha virt. eigenvalues --    7.05458   7.14030  43.44160
  Beta  occ. eigenvalues --  -18.96251  -0.98070  -0.48880  -0.34760  -0.26788
  Beta virt. eigenvalues --    0.03247   0.09751   0.35113   0.39519   0.43662
  Beta virt. eigenvalues --    0.44026   0.56427   0.57218   1.16432   1.18999
  Beta virt. eigenvalues --    1.30145   1.52825   1.64745   1.76771   2.01265
  Beta virt. eigenvalues --    2.09165   2.12910   2.32156   2.42002   2.62876
  Beta virt. eigenvalues --    2.65260   2.69117   2.84341   3.73208   4.01363
  Beta virt. eigenvalues --    5.23073   5.32821   5.50780   5.52299   5.58218
  Beta virt. eigenvalues --    6.13061   6.32639   6.42737   6.48963   6.54790
  Beta virt. eigenvalues --    7.05458   7.14030  43.44160
          Condensed to atoms (all electrons):
              35         36         37
    35  O    8.057965   0.289672   0.289270
    36  H    0.289672   0.409230  -0.017245
    37  H    0.289270  -0.017245   0.409412
          Atomic-Atomic Spin Densities.
              35         36         37
    35  O    0.000000   0.000000   0.000000
    36  H    0.000000   0.000000   0.000000
    37  H    0.000000   0.000000   0.000000
 Mulliken charges and spin densities:
               1          2
     1  O    0.000000   0.000000
     2  O    0.000000   0.000000
     3  C    0.000000   0.000000
     4  H    0.000000   0.000000
     5  O    0.000000   0.000000
     6  O    0.000000   0.000000
     7  C    0.000000   0.000000
     8  H    0.000000   0.000000
     9  O    0.000000   0.000000
    10  O    0.000000   0.000000
    11  O    0.000000   0.000000
    12  C    0.000000   0.000000
    13  H    0.000000   0.000000
    14  O    0.000000   0.000000
    15  O    0.000000   0.000000
    16  C    0.000000   0.000000
    17  H    0.000000   0.000000
    18  Fe   0.000000   0.000000
    19  O    0.000000   0.000000
    20  Fe   0.000000   0.000000
    21  O    0.000000   0.000000
    22  O    0.000000   0.000000
    23  Fe   0.000000   0.000000
    24  O    0.000000   0.000000
    25  C    0.000000   0.000000
    26  H    0.000000   0.000000
    27  C    0.000000   0.000000
    28  H    0.000000   0.000000
    29  N    0.000000   0.000000
    30  N    0.000000   0.000000
    31  O    0.000000   0.000000
    32  O    0.000000   0.000000
    33  H    0.000000   0.000000
    34  H    0.000000   0.000000
    35  O   -0.636907   0.000000
    36  H    0.318343   0.000000
    37  H    0.318564   0.000000
 Sum of Mulliken charges =   0.00000   0.00000
 Mulliken charges and spin densities with hydrogens summed into heavy atoms:
               1          2
     1  O    0.000000   0.000000
     2  O    0.000000   0.000000
     3  C    0.000000   0.000000
     5  O    0.000000   0.000000
     6  O    0.000000   0.000000
     7  C    0.000000   0.000000
     9  O    0.000000   0.000000
    10  O    0.000000   0.000000
    11  O    0.000000   0.000000
    12  C    0.000000   0.000000
    14  O    0.000000   0.000000
    15  O    0.000000   0.000000
    16  C    0.000000   0.000000
    18  Fe   0.000000   0.000000
    19  O    0.000000   0.000000
    20  Fe   0.000000   0.000000
    21  O    0.000000   0.000000
    22  O    0.000000   0.000000
    23  Fe   0.000000   0.000000
    24  O    0.000000   0.000000
    25  C    0.000000   0.000000
    27  C    0.000000   0.000000
    29  N    0.000000   0.000000
    30  N    0.000000   0.000000
    31  O    0.000000   0.000000
    32  O    0.000000   0.000000
    35  O    0.000000   0.000000
         Mulliken charges and spin densities condensed to fragments:
      1      0.000000      0.000000
      2      0.000000      0.000000
      3      0.000000      0.000000
      4      0.000000      0.000000
 Electronic spatial extent (au):  <R**2>=            705.7754
 Charge=              0.0000 electrons
 Dipole moment (field-independent basis, Debye):
    X=              0.4343    Y=              0.2420    Z=             -1.9645  Tot=              2.0264
 Quadrupole moment (field-independent basis, Debye-Ang):
   XX=             -3.2691   YY=             -5.8729   ZZ=             -4.2564
   XY=              1.5324   XZ=             -8.0710   YZ=              3.6674
 Traceless Quadrupole moment (field-independent basis, Debye-Ang):
   XX=              1.1970   YY=             -1.4067   ZZ=              0.2097
   XY=              1.5324   XZ=             -8.0710   YZ=              3.6674
 Octapole moment (field-independent basis, Debye-Ang**2):
  XXX=            -60.1482  YYY=             28.3270  ZZZ=              6.0761  XYY=            -26.4683
  XXY=             20.1750  XXZ=            -30.4212  XZZ=            -17.0961  YZZ=              6.6410
  YYZ=             -5.3889  XYZ=             14.0950
 Hexadecapole moment (field-independent basis, Debye-Ang**3):
 XXXX=           -543.8728 YYYY=           -101.8989 ZZZZ=            -11.7556 XXXY=            184.0742
 XXXZ=           -103.3861 YYYX=            121.7351 YYYZ=              5.1216 ZZZX=             24.6138
 ZZZY=             -9.4834 XXYY=           -140.3743 XXZZ=            -71.9357 YYZZ=            -12.4267
 XXYZ=             49.2246 YYXZ=            -19.1240 ZZXY=             27.4008
 N-N= 9.100822938843D+00 E-N=-1.991524292471D+02  KE= 7.619363541814D+01
 There are a total of       66422 grid points.
 ElSum from          density=       10.0000000063
 ElSum from atomic densities=       10.0000000049
 Hirshfeld populations at iteration   1 (CA, CB, DipXYZ):
               1          2          3          4          5
     1  O    0.000000   0.000000   0.000000   0.000000   0.000000
     2  O    0.000000   0.000000   0.000000   0.000000   0.000000
     3  C    0.000000   0.000000   0.000000   0.000000   0.000000
     4  H    0.000000   0.000000   0.000000   0.000000   0.000000
     5  O    0.000000   0.000000   0.000000   0.000000   0.000000
     6  O    0.000000   0.000000   0.000000   0.000000   0.000000
     7  C    0.000000   0.000000   0.000000   0.000000   0.000000
     8  H    0.000000   0.000000   0.000000   0.000000   0.000000
     9  O    0.000000   0.000000   0.000000   0.000000   0.000000
    10  O    0.000000   0.000000   0.000000   0.000000   0.000000
    11  O    0.000000   0.000000   0.000000   0.000000   0.000000
    12  C    0.000000   0.000000   0.000000   0.000000   0.000000
    13  H    0.000000   0.000000   0.000000   0.000000   0.000000
    14  O    0.000000   0.000000   0.000000   0.000000   0.000000
    15  O    0.000000   0.000000   0.000000   0.000000   0.000000
    16  C    0.000000   0.000000   0.000000   0.000000   0.000000
    17  H    0.000000   0.000000   0.000000   0.000000   0.000000
    18  Fe   0.000000   0.000000   0.000000   0.000000   0.000000
    19  O    0.000000   0.000000   0.000000   0.000000   0.000000
    20  Fe   0.000000   0.000000   0.000000   0.000000   0.000000
    21  O    0.000000   0.000000   0.000000   0.000000   0.000000
    22  O    0.000000   0.000000   0.000000   0.000000   0.000000
    23  Fe   0.000000   0.000000   0.000000   0.000000   0.000000
    24  O    0.000000   0.000000   0.000000   0.000000   0.000000
    25  C    0.000000   0.000000   0.000000   0.000000   0.000000
    26  H    0.000000   0.000000   0.000000   0.000000   0.000000
    27  C    0.000000   0.000000   0.000000   0.000000   0.000000
    28  H    0.000000   0.000000   0.000000   0.000000   0.000000
    29  N    0.000000   0.000000   0.000000   0.000000   0.000000
    30  N    0.000000   0.000000   0.000000   0.000000   0.000000
    31  O    0.000000   0.000000   0.000000   0.000000   0.000000
    32  O    0.000000   0.000000   0.000000   0.000000   0.000000
    33  H    0.000000   0.000000   0.000000   0.000000   0.000000
    34  H    0.000000   0.000000   0.000000   0.000000   0.000000
    35  O    4.154595   4.154595   0.036815   0.020794  -0.165514
    36  H    0.422790   0.422790   0.112617   0.174285  -0.098329
    37  H    0.422615   0.422615  -0.052315  -0.140496  -0.173773
       Tot   5.000000   5.000000   0.097117   0.054584  -0.437616

 Dip from Atomic Chgs              0.073732   0.040607  -0.335287
         Total Dipole              0.170849   0.095191  -0.772903

 Hirshfeld charges, spin densities, dipoles, and CM5 charges using IRadAn=      5:
              Q-H        S-H        Dx         Dy         Dz        Q-CM5   
     1  O    0.000000   0.000000   0.000000   0.000000   0.000000   0.000000
     2  O    0.000000   0.000000   0.000000   0.000000   0.000000   0.000000
     3  C    0.000000   0.000000   0.000000   0.000000   0.000000   0.000000
     4  H    0.000000   0.000000   0.000000   0.000000   0.000000   0.000000
     5  O    0.000000   0.000000   0.000000   0.000000   0.000000   0.000000
     6  O    0.000000   0.000000   0.000000   0.000000   0.000000   0.000000
     7  C    0.000000   0.000000   0.000000   0.000000   0.000000   0.000000
     8  H    0.000000   0.000000   0.000000   0.000000   0.000000   0.000000
     9  O    0.000000   0.000000   0.000000   0.000000   0.000000   0.000000
    10  O    0.000000   0.000000   0.000000   0.000000   0.000000   0.000000
    11  O    0.000000   0.000000   0.000000   0.000000   0.000000   0.000000
    12  C    0.000000   0.000000   0.000000   0.000000   0.000000   0.000000
    13  H    0.000000   0.000000   0.000000   0.000000   0.000000   0.000000
    14  O    0.000000   0.000000   0.000000   0.000000   0.000000   0.000000
    15  O    0.000000   0.000000   0.000000   0.000000   0.000000   0.000000
    16  C    0.000000   0.000000   0.000000   0.000000   0.000000   0.000000
    17  H    0.000000   0.000000   0.000000   0.000000   0.000000   0.000000
    18  Fe   0.000000   0.000000   0.000000   0.000000   0.000000   0.000000
    19  O    0.000000   0.000000   0.000000   0.000000   0.000000   0.000000
    20  Fe   0.000000   0.000000   0.000000   0.000000   0.000000   0.000000
    21  O    0.000000   0.000000   0.000000   0.000000   0.000000   0.000000
    22  O    0.000000   0.000000   0.000000   0.000000   0.000000   0.000000
    23  Fe   0.000000   0.000000   0.000000   0.000000   0.000000   0.000000
    24  O    0.000000   0.000000   0.000000   0.000000   0.000000   0.000000
    25  C    0.000000   0.000000   0.000000   0.000000   0.000000   0.000000
    26  H    0.000000   0.000000   0.000000   0.000000   0.000000   0.000000
    27  C    0.000000   0.000000   0.000000   0.000000   0.000000   0.000000
    28  H    0.000000   0.000000   0.000000   0.000000   0.000000   0.000000
    29  N    0.000000   0.000000   0.000000   0.000000   0.000000   0.000000
    30  N    0.000000   0.000000   0.000000   0.000000   0.000000   0.000000
    31  O    0.000000   0.000000   0.000000   0.000000   0.000000   0.000000
    32  O    0.000000   0.000000   0.000000   0.000000   0.000000   0.000000
    33  H    0.000000   0.000000   0.000000   0.000000   0.000000   0.000000
    34  H    0.000000   0.000000   0.000000   0.000000   0.000000   0.000000
    35  O   -0.309189   0.000000   0.036815   0.020794  -0.165514  -0.637578
    36  H    0.154419   0.000000   0.112617   0.174285  -0.098329   0.319021
    37  H    0.154770   0.000000  -0.052315  -0.140496  -0.173773   0.318556
       Tot  -0.000000   0.000000   0.097117   0.054584  -0.437616  -0.000000
 Hirshfeld charges and spin densities with hydrogens summed into heavy atoms:
              Q-H        S-H       Q-CM5   
     1  O    0.000000   0.000000   0.000000
     2  O    0.000000   0.000000   0.000000
     3  C    0.000000   0.000000   0.000000
     5  O    0.000000   0.000000   0.000000
     6  O    0.000000   0.000000   0.000000
     7  C    0.000000   0.000000   0.000000
     9  O    0.000000   0.000000   0.000000
    10  O    0.000000   0.000000   0.000000
    11  O    0.000000   0.000000   0.000000
    12  C    0.000000   0.000000   0.000000
    14  O    0.000000   0.000000   0.000000
    15  O    0.000000   0.000000   0.000000
    16  C    0.000000   0.000000   0.000000
    18  Fe   0.000000   0.000000   0.000000
    19  O    0.000000   0.000000   0.000000
    20  Fe   0.000000   0.000000   0.000000
    21  O    0.000000   0.000000   0.000000
    22  O    0.000000   0.000000   0.000000
    23  Fe   0.000000   0.000000   0.000000
    24  O    0.000000   0.000000   0.000000
    25  C    0.000000   0.000000   0.000000
    27  C    0.000000   0.000000   0.000000
    29  N    0.000000   0.000000   0.000000
    30  N    0.000000   0.000000   0.000000
    31  O    0.000000   0.000000   0.000000
    32  O    0.000000   0.000000   0.000000
    35  O   -0.000000   0.000000  -0.000000
         Hirshfeld charges and spin densities condensed to fragments:
      1      0.000000      0.000000
      2      0.000000      0.000000
      3      0.000000      0.000000
      4     -0.000000      0.000000
 
 EQQ=  0.00000000000     EQD=  0.00000000000     EDD= 0.730751453031E-02
 EQQ+QD+DD= 0.730751453031E-02
 
                          Isotropic Fermi Contact Couplings
        Atom                 a.u.       MegaHertz       Gauss      10(-4) cm-1
    35  O(17)              0.00000      -0.00000      -0.00000      -0.00000
    36  H(1)               0.00000       0.00000       0.00000       0.00000
    37  H(1)               0.00000       0.00000       0.00000       0.00000
 --------------------------------------------------------
       Center         ----  Spin Dipole Couplings  ----
                      3XX-RR        3YY-RR        3ZZ-RR
 --------------------------------------------------------
    35   Atom        0.000000      0.000000      0.000000
    36   Atom        0.000000      0.000000      0.000000
    37   Atom        0.000000      0.000000      0.000000
 --------------------------------------------------------
                        XY            XZ            YZ
 --------------------------------------------------------
    35   Atom        0.000000      0.000000      0.000000
    36   Atom        0.000000      0.000000      0.000000
    37   Atom        0.000000      0.000000      0.000000
 --------------------------------------------------------


 ---------------------------------------------------------------------------------
              Anisotropic Spin Dipole Couplings in Principal Axis System
 ---------------------------------------------------------------------------------

       Atom             a.u.   MegaHertz   Gauss  10(-4) cm-1        Axes

              Baa     0.0000    -0.000    -0.000    -0.000  1.0000  0.0000  0.0000
    35 O(17)  Bbb     0.0000    -0.000    -0.000    -0.000 -0.0000  1.0000  0.0000
              Bcc     0.0000    -0.000    -0.000    -0.000  0.0000  0.0000  1.0000
 
              Baa     0.0000     0.000     0.000     0.000  1.0000  0.0000  0.0000
    36 H(1)   Bbb     0.0000     0.000     0.000     0.000 -0.0000  1.0000  0.0000
              Bcc     0.0000     0.000     0.000     0.000  0.0000  0.0000  1.0000
 
              Baa     0.0000     0.000     0.000     0.000  1.0000  0.0000  0.0000
    37 H(1)   Bbb     0.0000     0.000     0.000     0.000 -0.0000  1.0000  0.0000
              Bcc     0.0000     0.000     0.000     0.000  0.0000  0.0000  1.0000
 

 ---------------------------------------------------------------------------------

 No NMR shielding tensors so no spin-rotation constants.
 Leave Link  601 at Sun Apr  2 02:10:51 2023, MaxMem= 14763950080 cpu:               0.3 elap:               1.0
 (Enter /software/commercial/gaussian/g16/AVX2/g16/l122.exe)
 CPIOFr:  IOpCl= 1 IRwI=-1 IRwCP=  731 ICalc=  8 LCPTot=     1335953 Len1MO=     4428746 IndFrg=    41194667
 Restoring MOs from calculation   1 to rwf.
 CPIOFr:  IOpCl= 1 IRwI=-2 IRwCP=  731 ICalc=  0 LCPTot=     1335953 Len1MO=     4428746 IndFrg=     5764699
 Counterpoise corrected energy =   -5339.754619502798
                   BSSE energy =       0.005230586074
              sum of fragments =   -5339.689566112568
           complexation energy =     -44.10 kcal/mole (raw)
           complexation energy =     -40.82 kcal/mole (corrected)
 Leave Link  122 at Sun Apr  2 02:10:56 2023, MaxMem= 14763950080 cpu:               0.1 elap:               3.9
 (Enter /software/commercial/gaussian/g16/AVX2/g16/l9999.exe)
 Unable to Open any file for archive entry.
 1\1\GINC-NODE0158\SP\UM06L\Gen\C6H10Fe3N2O16(15)\SVICCHI\02-Apr-2023\0
 \\#p gen um06l int=grid=ultrafine scf=(xqc,intrep,maxconventionalcycle
 =150) pop=(hirshfeld) nosymm counterpoise=4\\FeFeFe-B-2xH2O-counterpoi
 se\\0,15\O,0,1.654104,-2.10806,-1.587075\O,0,-0.526169,-2.513544,-1.17
 4096\C,0,0.53715,-2.671063,-1.786764\H,0,0.527499,-3.401721,-2.615711\
 O,0,1.866797,2.23607,1.180184\O,0,2.946151,0.272945,1.382121\C,0,2.738
 628,1.47555,1.659291\H,0,3.41098,1.918495,2.414972\O,0,-2.106049,-0.13
 0305,-1.49069\O,0,2.809527,0.486539,-1.438213\O,0,1.382451,2.213978,-1
 .624194\C,0,2.384885,1.541889,-1.958105\H,0,2.965823,1.93157,-2.81341\
 O,0,-0.584441,-2.09859,1.77605\O,0,1.609912,-2.281859,1.281187\C,0,0.5
 76307,-2.489457,1.976702\H,0,0.733871,-3.106474,2.878451\Fe,0,-1.39619
 2,-1.141067,0.150473\O,0,-2.203912,0.274962,1.466602\Fe,0,0.14847,1.85
 9447,0.029179\O,0,-0.904179,2.103791,1.700791\O,0,-1.425527,1.996524,-
 1.16606\Fe,0,1.981819,-0.843969,-0.028618\O,0,0.287423,-0.023408,0.040
 073\C,0,-1.845344,1.324054,2.022954\H,0,-2.420176,1.633154,2.913996\C,
 0,-2.066457,1.081653,-1.755758\H,0,-2.67276,1.412663,-2.616461\N,0,-4.
 965039,0.637726,-0.129774\N,0,-5.51582,-0.072341,0.495911\O,0,-2.74440
 9,-2.031597,0.238135\O,0,0.240212,4.067771,-0.006181\H,0,0.71057,4.243
 42,-0.831888\H,0,0.879619,4.249023,0.695781\O,0,3.996325,-1.719637,-0.
 363906\H,0,4.470077,-0.986614,-0.778107\H,0,3.775744,-2.312159,-1.0970
 3\\Version=ES64L-G16RevC.02\HF=-76.443168\S2=0.\S2-1=0.\S2A=0.\RMSD=3.
 327e-09\Dipole=2.8049123,1.6707067,-0.7621233\Quadrupole=-4.0588718,2.
 1661499,1.8927219,-1.6632685,-4.0690595,2.1957189\PG=C01 [X(C6H10Fe3N2
 O16)]\\@
 The archive entry for this job was punched.


 LENDING MONEY TO FRIENDS CAUSES THEM TO LOSE THEIR MEMORIES.

    --  PETER'S THEORY OF RECIPROCAL INHIBITION OF FISCAL RECALL
 Job cpu time:       0 days 11 hours 36 minutes 56.5 seconds.
 Elapsed time:       0 days  6 hours  0 minutes 52.8 seconds.
 File lengths (MBytes):  RWF=   1224 Int=      0 D2E=      0 Chk=    370 Scr=      1
 Normal termination of Gaussian 16 at Sun Apr  2 02:11:12 2023.
