 Entering Gaussian System, Link 0=g16
 Input=FeFeFe-A-2xH2O-counterpoise-opt.gjf
 Output=FeFeFe-A-2xH2O-counterpoise-opt.log
 AtFile(1): /zfs/curium/svicchi/00-MOF/01-Gaussian/zw-basis-set/def2-TZVP/H.gbs
            !----------------------------------------------------------------------
            ! Basis Set Exchange
            ! Version v0.9
            ! https://www.basissetexchange.org
            !----------------------------------------------------------------------
            !   Basis set: def2-TZVP
            ! Description: def2-TZVP
            !        Role: orbital
            !     Version: 1  (Data from Turbomole 7.3)
            !----------------------------------------------------------------------
            H     0
            S    3   1.00
                 34.0613410              0.60251978D-02
                  5.1235746              0.45021094D-01
                  1.1646626              0.20189726
            S    1   1.00
                  0.32723041             1.0000000
            S    1   1.00
                  0.10307241             1.0000000
            P    1   1.00
                  0.8000000              1.0000000
 AtFile(1): /zfs/curium/svicchi/00-MOF/01-Gaussian/zw-basis-set/def2-TZVP/O.gbs
            !----------------------------------------------------------------------
            ! Basis Set Exchange
            ! Version v0.9
            ! https://www.basissetexchange.org
            !----------------------------------------------------------------------
            !   Basis set: def2-TZVP
            ! Description: def2-TZVP
            !        Role: orbital
            !     Version: 1  (Data from Turbomole 7.3)
            !----------------------------------------------------------------------
            O     0
            S    6   1.00
              27032.3826310              0.21726302465D-03
               4052.3871392              0.16838662199D-02
                922.32722710             0.87395616265D-02
                261.24070989             0.35239968808D-01
                 85.354641351            0.11153519115
                 31.035035245            0.25588953961
            S    2   1.00
                 12.260860728            0.39768730901
                  4.9987076005           0.24627849430
            S    1   1.00
                  1.1703108158           1.0000000
            S    1   1.00
                  0.46474740994          1.0000000
            S    1   1.00
                  0.18504536357          1.0000000
            P    4   1.00
                 63.274954801            0.60685103418D-02
                 14.627049379            0.41912575824D-01
                  4.4501223456           0.16153841088
                  1.5275799647           0.35706951311
            P    1   1.00
                  0.52935117943           .44794207502
            P    1   1.00
                  0.17478421270           .24446069663
            D    1   1.00
                  2.31400000             1.0000000
            D    1   1.00
                  0.64500000             1.0000000
            F    1   1.00
                  1.42800000             1.0000000
 AtFile(1): /zfs/curium/svicchi/00-MOF/01-Gaussian/zw-basis-set/def2-TZVP/C.gbs
            !----------------------------------------------------------------------
            ! Basis Set Exchange
            ! Version v0.9
            ! https://www.basissetexchange.org
            !----------------------------------------------------------------------
            !   Basis set: def2-TZVP
            ! Description: def2-TZVP
            !        Role: orbital
            !     Version: 1  (Data from Turbomole 7.3)
            !----------------------------------------------------------------------
            C     0
            S    6   1.00
              13575.3496820              0.22245814352D-03
               2035.2333680              0.17232738252D-02
                463.22562359             0.89255715314D-02
                131.20019598             0.35727984502D-01
                 42.853015891            0.11076259931
                 15.584185766            0.24295627626
            S    2   1.00
                  6.2067138508           0.41440263448
                  2.5764896527           0.23744968655
            S    1   1.00
                  0.57696339419          1.0000000
            S    1   1.00
                  0.22972831358          1.0000000
            S    1   1.00
                  0.95164440028D-01      1.0000000
            P    4   1.00
                 34.697232244            0.53333657805D-02
                  7.9582622826           0.35864109092D-01
                  2.3780826883           0.14215873329
                  0.81433208183          0.34270471845
            P    1   1.00
                  0.28887547253           .46445822433
            P    1   1.00
                  0.10056823671           .24955789874
            D    1   1.00
                  1.09700000             1.0000000
            D    1   1.00
                  0.31800000             1.0000000
            F    1   1.00
                  0.76100000             1.0000000
 AtFile(1): /zfs/curium/svicchi/00-MOF/01-Gaussian/zw-basis-set/def2-TZVP/Fe.gbs
            !----------------------------------------------------------------------
            ! Basis Set Exchange
            ! Version v0.9
            ! https://www.basissetexchange.org
            !----------------------------------------------------------------------
            !   Basis set: def2-TZVP
            ! Description: def2-TZVP
            !        Role: orbital
            !     Version: 1  (Data from Turbomole 7.3)
            !----------------------------------------------------------------------
            Fe     0
            S    8   1.00
             300784.8463700              0.22806273096D-03
              45088.9705570              0.17681788761D-02
              10262.5163170              0.91927083490D-02
               2905.2897293              0.37355495807D-01
                946.11487137             0.12151108426
                339.87832894             0.28818881468
                131.94425588             0.41126612677
                 52.111494077            0.21518583573
            S    4   1.00
                329.48839267            -0.24745216477D-01
                101.92332739            -0.11683089050
                 16.240462745            0.55293621136
                  6.8840675801           0.53601640182
            S    2   1.00
                 10.470693782           -0.22912708577
                  1.7360039648           0.71159319984
            S    1   1.00
                  0.72577288979          1.0000000
            S    1   1.00
                  0.11595528203          1.0000000
            S    1   1.00
                  0.41968227746D-01      1.0000000
            P    6   1.00
               1585.3959970              0.23793960179D-02
                375.38006499             0.19253154755D-01
                120.31816501             0.90021836536D-01
                 44.788749031            0.25798172356
                 17.829278584            0.41492649744
                  7.2247153786           0.24207474784
            P    3   1.00
                 28.143219756           -0.29041755152D-01
                  3.8743241412           0.55312260343
                  1.5410752281           0.96771136842
            P    1   1.00
                  0.58285615250          1.0000000
            P    1   1.00
                  0.1349150              1.0000000
            D    4   1.00
                 61.996675034            0.11971972255D-01
                 17.873732552            0.73210135410D-01
                  6.2744782934           0.23103094314
                  2.3552337175           0.39910706494
            D    1   1.00
                  0.85432239901           .41391589765
            D    1   1.00
                  0.27869254413           .21909269782
            D    1   1.00
                  0.0910000              1.0000000
            F    1   1.00
                  1.5980000              1.0000000
 Initial command:
 /software/commercial/gaussian/g16/AVX2/g16/l1.exe "/scratch1/svicchi/G09-87892.pbs02/Gau-3570405.inp" -scrdir="/scratch1/svicchi/G09-87892.pbs02/"
 Entering Link 1 = /software/commercial/gaussian/g16/AVX2/g16/l1.exe PID=   3570406.
  
 Copyright (c) 1988-2021, Gaussian, Inc.  All Rights Reserved.
  
 This is part of the Gaussian(R) 16 program.  It is based on
 the Gaussian(R) 09 system (copyright 2009, Gaussian, Inc.),
 the Gaussian(R) 03 system (copyright 2003, Gaussian, Inc.),
 the Gaussian(R) 98 system (copyright 1998, Gaussian, Inc.),
 the Gaussian(R) 94 system (copyright 1995, Gaussian, Inc.),
 the Gaussian 92(TM) system (copyright 1992, Gaussian, Inc.),
 the Gaussian 90(TM) system (copyright 1990, Gaussian, Inc.),
 the Gaussian 88(TM) system (copyright 1988, Gaussian, Inc.),
 the Gaussian 86(TM) system (copyright 1986, Carnegie Mellon
 University), and the Gaussian 82(TM) system (copyright 1983,
 Carnegie Mellon University). Gaussian is a federally registered
 trademark of Gaussian, Inc.
  
 This software contains proprietary and confidential information,
 including trade secrets, belonging to Gaussian, Inc.
  
 This software is provided under written license and may be
 used, copied, transmitted, or stored only in accord with that
 written license.
  
 The following legend is applicable only to US Government
 contracts under FAR:
  
                    RESTRICTED RIGHTS LEGEND
  
 Use, reproduction and disclosure by the US Government is
 subject to restrictions as set forth in subparagraphs (a)
 and (c) of the Commercial Computer Software - Restricted
 Rights clause in FAR 52.227-19.
  
 Gaussian, Inc.
 340 Quinnipiac St., Bldg. 40, Wallingford CT 06492
  
  
 ---------------------------------------------------------------
 Warning -- This program may not be used in any manner that
 competes with the business of Gaussian, Inc. or will provide
 assistance to any competitor of Gaussian, Inc.  The licensee
 of this program is prohibited from giving any competitor of
 Gaussian, Inc. access to this program.  By using this program,
 the user acknowledges that Gaussian, Inc. is engaged in the
 business of creating and licensing software in the field of
 computational chemistry and represents and warrants to the
 licensee that it is not a competitor of Gaussian, Inc. and that
 it will not use this program in any manner prohibited above.
 ---------------------------------------------------------------
  

 Cite this work as:
 Gaussian 16, Revision C.02,
 M. J. Frisch, G. W. Trucks, H. B. Schlegel, G. E. Scuseria, 
 M. A. Robb, J. R. Cheeseman, G. Scalmani, V. Barone, 
 G. A. Petersson, H. Nakatsuji, X. Li, M. Caricato, A. V. Marenich, 
 J. Bloino, B. G. Janesko, R. Gomperts, B. Mennucci, H. P. Hratchian, 
 J. V. Ortiz, A. F. Izmaylov, J. L. Sonnenberg, D. Williams-Young, 
 F. Ding, F. Lipparini, F. Egidi, J. Goings, B. Peng, A. Petrone, 
 T. Henderson, D. Ranasinghe, V. G. Zakrzewski, J. Gao, N. Rega, 
 G. Zheng, W. Liang, M. Hada, M. Ehara, K. Toyota, R. Fukuda, 
 J. Hasegawa, M. Ishida, T. Nakajima, Y. Honda, O. Kitao, H. Nakai, 
 T. Vreven, K. Throssell, J. A. Montgomery, Jr., J. E. Peralta, 
 F. Ogliaro, M. J. Bearpark, J. J. Heyd, E. N. Brothers, K. N. Kudin, 
 V. N. Staroverov, T. A. Keith, R. Kobayashi, J. Normand, 
 K. Raghavachari, A. P. Rendell, J. C. Burant, S. S. Iyengar, 
 J. Tomasi, M. Cossi, J. M. Millam, M. Klene, C. Adamo, R. Cammi, 
 J. W. Ochterski, R. L. Martin, K. Morokuma, O. Farkas, 
 J. B. Foresman, and D. J. Fox, Gaussian, Inc., Wallingford CT, 2019.
 
 ******************************************
 Gaussian 16:  ES64L-G16RevC.02  7-Dec-2021
                 1-Feb-2023 
 ******************************************
 %NProcShared=2
 Will use up to    2 processors via shared memory.
 %mem=110gb
 %chk=/scratch1/svicchi/G09-87892.pbs02/00-opt/FeFeFe-A-2xH2O-counterpoise-opt.ch
 k
 ----------------------------------------------------------------------
 #p gen um06l int=grid=ultrafine scf=(xqc,intrep,maxconventionalcycle=1
 50) pop=(hirshfeld) nosymm counterpoise=3
 ----------------------------------------------------------------------
 1/38=1,62=3,172=1/1;
 2/12=2,15=1,17=6,18=5,40=1/2;
 1/38=1,53=2,62=3,63=1/22;
 3/5=7,11=2,25=1,30=1,74=-53,75=-5,116=2/1,2,3;
 4//1;
 5/5=2,8=3,13=1,17=20,38=5,85=150/2,8;
 6/7=2,8=2,9=2,10=2,28=1,79=1/1;
 1/53=2,62=3,63=1/22;
 3/5=7,6=11,11=2,25=1,30=1,74=-53,75=-5,82=7,116=2/1,2,3;
 4//1;
 5/5=2,8=3,13=1,17=20,38=5,85=150/2,8;
 6/7=2,8=2,9=2,10=2,28=1,79=1/1;
 1/53=2,62=3,63=1/22(-4);
 99/5=1,9=1/99;
 Leave Link    1 at Wed Feb  1 10:55:40 2023, MaxMem= 14763950080 cpu:               0.0 elap:               0.1
 (Enter /software/commercial/gaussian/g16/AVX2/g16/l101.exe)
 --------------
 FeFeFe-A-2xH2O
 --------------
 Symbolic Z-matrix:
 Charge =  0 Multiplicity =15 in supermolecule
 Charge =  0 Multiplicity =15 in fragment      1.
 Charge =  0 Multiplicity = 1 in fragment      2.
 Charge =  0 Multiplicity = 1 in fragment      3.
 O(fragment=1)         1.43838  -2.15314  -1.71442 
 O(fragment=1)        -0.78791  -2.24822  -1.379 
 C(fragment=1)         0.28324  -2.5795   -1.94083 
 H(fragment=1)         0.19346  -3.33944  -2.73604 
 O(fragment=1)         1.96774   2.21002   1.38615 
 O(fragment=1)         3.20033   0.35936   1.0267 
 C(fragment=1)         2.95178   1.46157   1.57268 
 H(fragment=1)         3.69358   1.81572   2.31061 
 O(fragment=1)        -2.26923   0.13828  -1.17292 
 O(fragment=1)         2.78069   0.45434  -1.82586 
 O(fragment=1)         1.65178   2.37211  -1.4741 
 C(fragment=1)         2.47268   1.63955  -2.07808 
 H(fragment=1)         2.98797   2.0981   -2.94094 
 O(fragment=1)        -0.44603  -2.30345   1.42428 
 O(fragment=1)         1.787    -2.25624   1.13063 
 C(fragment=1)         0.72752  -2.67247   1.6564 
 H(fragment=1)         0.83957  -3.46038   2.42231 
 Fe(fragment=1)       -1.06947  -0.8955    0.09943 
 O(fragment=1)        -1.98869   0.04699   1.63566 
 Fe(fragment=1)        0.37183   2.01949   0.14563 
 O(fragment=1)        -0.94038   2.04055   1.70131 
 O(fragment=1)        -1.3032    2.17294  -1.1409 
 Fe(fragment=1)        2.14592  -0.80461  -0.36356 
 O(fragment=1)         0.49094   0.11359  -0.04313 
 C(fragment=1)        -1.77198   1.1928    2.09738 
 H(fragment=1)        -2.39062   1.48675   2.96274 
 C(fragment=1)        -2.1696    1.34185  -1.50254 
 H(fragment=1)        -2.94036   1.71293  -2.20129 
 O(fragment=2)         0.17397   4.17831  -0.1198 
 H(fragment=2)         0.85218   4.30491  -0.7994 
 H(fragment=2)        -0.66186   4.18356  -0.60976 
 O(fragment=3)         4.06496  -1.8399   -0.25439 
 H(fragment=3)         4.52335  -1.21638   0.32843 
 H(fragment=3)         3.80587  -2.56839   0.3291 
 
 ITRead=  0  0  0  0  0  0  0  0  0  0  0  0  0  0  0  0  0  0  0  0
 ITRead=  0  0  0  0  0  0  0  0  0  0  0  0  0  0
 MicOpt= -1 -1 -1 -1 -1 -1 -1 -1 -1 -1 -1 -1 -1 -1 -1 -1 -1 -1 -1 -1
 MicOpt= -1 -1 -1 -1 -1 -1 -1 -1 -1 -1 -1 -1 -1 -1
 NAtoms=     34 NQM=       34 NQMF=       0 NMMI=      0 NMMIF=      0
                NMic=       0 NMicF=      0.
                    Isotopes and Nuclear Properties:
 (Nuclear quadrupole moments (NQMom) in fm**2, nuclear magnetic moments (NMagM)
  in nuclear magnetons)

  Atom         1           2           3           4           5           6           7           8           9          10
 IAtWgt=          16          16          12           1          16          16          12           1          16          16
 AtmWgt=  15.9949146  15.9949146  12.0000000   1.0078250  15.9949146  15.9949146  12.0000000   1.0078250  15.9949146  15.9949146
 NucSpn=           0           0           0           1           0           0           0           1           0           0
 AtZEff=  -0.0000000  -0.0000000  -0.0000000  -0.0000000  -0.0000000  -0.0000000  -0.0000000  -0.0000000  -0.0000000  -0.0000000
 NQMom=    0.0000000   0.0000000   0.0000000   0.0000000   0.0000000   0.0000000   0.0000000   0.0000000   0.0000000   0.0000000
 NMagM=    0.0000000   0.0000000   0.0000000   2.7928460   0.0000000   0.0000000   0.0000000   2.7928460   0.0000000   0.0000000
 AtZNuc=   8.0000000   8.0000000   6.0000000   1.0000000   8.0000000   8.0000000   6.0000000   1.0000000   8.0000000   8.0000000

  Atom        11          12          13          14          15          16          17          18          19          20
 IAtWgt=          16          12           1          16          16          12           1          56          16          56
 AtmWgt=  15.9949146  12.0000000   1.0078250  15.9949146  15.9949146  12.0000000   1.0078250  55.9349393  15.9949146  55.9349393
 NucSpn=           0           0           1           0           0           0           1           0           0           0
 AtZEff=  -0.0000000  -0.0000000  -0.0000000  -0.0000000  -0.0000000  -0.0000000  -0.0000000  -0.0000000  -0.0000000  -0.0000000
 NQMom=    0.0000000   0.0000000   0.0000000   0.0000000   0.0000000   0.0000000   0.0000000   0.0000000   0.0000000   0.0000000
 NMagM=    0.0000000   0.0000000   2.7928460   0.0000000   0.0000000   0.0000000   2.7928460   0.0000000   0.0000000   0.0000000
 AtZNuc=   8.0000000   6.0000000   1.0000000   8.0000000   8.0000000   6.0000000   1.0000000  26.0000000   8.0000000  26.0000000

  Atom        21          22          23          24          25          26          27          28          29          30
 IAtWgt=          16          16          56          16          12           1          12           1          16           1
 AtmWgt=  15.9949146  15.9949146  55.9349393  15.9949146  12.0000000   1.0078250  12.0000000   1.0078250  15.9949146   1.0078250
 NucSpn=           0           0           0           0           0           1           0           1           0           1
 AtZEff=  -0.0000000  -0.0000000  -0.0000000  -0.0000000  -0.0000000  -0.0000000  -0.0000000  -0.0000000  -0.0000000  -0.0000000
 NQMom=    0.0000000   0.0000000   0.0000000   0.0000000   0.0000000   0.0000000   0.0000000   0.0000000   0.0000000   0.0000000
 NMagM=    0.0000000   0.0000000   0.0000000   0.0000000   0.0000000   2.7928460   0.0000000   2.7928460   0.0000000   2.7928460
 AtZNuc=   8.0000000   8.0000000  26.0000000   8.0000000   6.0000000   1.0000000   6.0000000   1.0000000   8.0000000   1.0000000

  Atom        31          32          33          34
 IAtWgt=           1          16           1           1
 AtmWgt=   1.0078250  15.9949146   1.0078250   1.0078250
 NucSpn=           1           0           1           1
 AtZEff=  -0.0000000  -0.0000000  -0.0000000  -0.0000000
 NQMom=    0.0000000   0.0000000   0.0000000   0.0000000
 NMagM=    2.7928460   0.0000000   2.7928460   2.7928460
 AtZNuc=   1.0000000   8.0000000   1.0000000   1.0000000
 Leave Link  101 at Wed Feb  1 10:55:41 2023, MaxMem= 14763950080 cpu:               0.1 elap:               0.3
 (Enter /software/commercial/gaussian/g16/AVX2/g16/l202.exe)
                          Input orientation:                          
 ---------------------------------------------------------------------
 Center     Atomic      Atomic             Coordinates (Angstroms)
 Number     Number       Type             X           Y           Z
 ---------------------------------------------------------------------
      1          8           0        1.438376   -2.153135   -1.714415
      2          8           0       -0.787910   -2.248215   -1.379003
      3          6           0        0.283239   -2.579499   -1.940826
      4          1           0        0.193458   -3.339440   -2.736042
      5          8           0        1.967738    2.210024    1.386148
      6          8           0        3.200333    0.359363    1.026705
      7          6           0        2.951777    1.461566    1.572682
      8          1           0        3.693582    1.815721    2.310605
      9          8           0       -2.269227    0.138284   -1.172925
     10          8           0        2.780687    0.454344   -1.825857
     11          8           0        1.651777    2.372109   -1.474095
     12          6           0        2.472677    1.639545   -2.078080
     13          1           0        2.987971    2.098103   -2.940943
     14          8           0       -0.446029   -2.303451    1.424282
     15          8           0        1.786995   -2.256238    1.130629
     16          6           0        0.727521   -2.672470    1.656397
     17          1           0        0.839572   -3.460379    2.422306
     18         26           0       -1.069467   -0.895496    0.099433
     19          8           0       -1.988686    0.046986    1.635664
     20         26           0        0.371825    2.019492    0.145631
     21          8           0       -0.940384    2.040546    1.701308
     22          8           0       -1.303196    2.172945   -1.140902
     23         26           0        2.145922   -0.804606   -0.363559
     24          8           0        0.490938    0.113585   -0.043131
     25          6           0       -1.771980    1.192802    2.097383
     26          1           0       -2.390618    1.486751    2.962741
     27          6           0       -2.169600    1.341850   -1.502543
     28          1           0       -2.940358    1.712927   -2.201286
     29          8           0        0.173968    4.178308   -0.119801
     30          1           0        0.852175    4.304909   -0.799400
     31          1           0       -0.661858    4.183558   -0.609761
     32          8           0        4.064964   -1.839901   -0.254394
     33          1           0        4.523353   -1.216379    0.328429
     34          1           0        3.805872   -2.568391    0.329101
 ---------------------------------------------------------------------
                    Distance matrix (angstroms):
                    1          2          3          4          5
     1  O    0.000000
     2  O    2.253418   0.000000
     3  C    1.251954   1.254095   0.000000
     4  H    2.000216   1.998852   1.103603   0.000000
     5  O    5.378743   5.925838   6.070076   7.137021   0.000000
     6  O    4.114715   5.337881   5.094368   6.072949   2.252429
     7  C    5.114827   6.038226   5.982979   7.015917   1.250327
     8  H    6.085931   7.086082   7.001647   8.018429   1.997156
     9  O    4.392053   2.816407   3.806718   4.539022   5.365895
    10  O    2.934819   4.498710   3.931243   4.681345   3.749703
    11  O    4.536643   5.225754   5.158406   6.028349   2.882203
    12  C    3.947968   5.121993   4.755293   5.515256   3.547011
    13  H    4.688138   5.965519   5.495068   6.117039   4.447147
    14  O    3.664014   2.824596   3.454271   4.334802   5.118514
    15  O    2.868177   3.595616   3.435057   4.320166   4.477215
    16  C    3.483877   3.419090   3.625747   4.474773   5.044791
    17  H    4.379488   4.309059   4.485797   5.200062   5.873657
    18  Fe   3.340805   2.023585   2.971252   3.950666   4.530398
    19  O    5.273359   3.974673   4.985113   5.944867   4.516003
    20  Fe   4.691281   4.677907   5.050927   6.087200   2.030301
    21  O    5.908690   5.282522   6.008927   7.065403   2.930055
    22  O    5.153649   4.457451   5.073695   5.930500   4.133566
    23  Fe   2.035673   3.423814   3.017881   3.983237   3.490160
    24  O    2.971338   2.999684   3.301074   4.389037   2.935785
    25  C    6.002623   4.989414   5.895872   6.911307   3.940316
    26  H    7.055902   5.947217   6.908608   7.902259   4.690846
    27  C    5.027654   3.848753   4.646019   5.387025   5.120139
    28  H    5.861467   4.582557   5.374415   5.969353   6.099688
    29  O    6.650466   6.618988   6.999716   7.960002   3.059352
    30  H    6.548833   6.780063   7.001544   7.913315   3.226398
    31  H    6.766456   6.478837   6.957290   7.864359   3.846201
    32  O    3.021381   4.998185   4.206246   4.836916   4.846816
    33  H    3.816780   5.673581   4.998618   5.713699   4.403428
    34  H    3.154906   4.911514   4.190660   4.799912   5.227747
                    6          7          8          9         10
     6  O    0.000000
     7  C    1.254879   0.000000
     8  H    2.003166   1.104641   0.000000
     9  O    5.899435   6.045520   7.106607   0.000000
    10  O    2.884828   3.548779   4.449387   5.101749   0.000000
    11  O    3.564151   3.435395   4.336184   4.522715   2.252997
    12  C    3.436283   3.686364   4.558750   5.055566   1.250275
    13  H    4.337113   4.558432   5.306259   5.882594   1.997080
    14  O    4.532615   5.073703   5.906736   4.003949   5.346076
    15  O    2.974843   3.920994   4.648469   5.243380   4.132250
    16  C    3.962742   4.695165   5.419351   4.988577   5.110631
    17  H    4.702268   5.422989   5.999590   5.961602   6.094249
    18  Fe   4.545954   4.888416   5.909874   2.031507   4.511374
    19  O    5.233959   5.139375   5.989335   2.824042   5.907198
    20  Fe   3.395994   3.000651   3.970227   3.500384   3.484117
    21  O    4.519624   3.937090   4.679255   3.694001   5.366871
    22  O    5.316895   5.096508   6.083445   2.252573   4.483397
    23  Fe   2.097484   3.087712   4.051237   4.586682   2.031304
    24  O    2.923316   3.237844   4.323687   2.982542   2.921845
    25  C    5.154112   4.760402   5.505076   3.471913   6.055073
    26  H    6.023120   5.520334   6.127886   4.351647   7.123126
    27  C    6.016524   5.974935   7.010104   1.251856   5.039597
    28  H    7.068249   7.001662   8.023521   1.996858   5.869867
    29  O    5.005767   4.238090   4.886346   4.837361   4.855257
    30  H    4.941239   4.256724   4.893034   5.219524   4.427146
    31  H    5.676179   5.023013   5.753699   4.389195   5.218912
    32  O    2.688041   3.934092   4.481151   6.699171   3.063074
    33  H    2.172771   3.345057   3.716339   7.087194   3.235606
    34  H    3.070028   4.303083   4.812422   6.818284   3.851204
                   11         12         13         14         15
    11  O    0.000000
    12  C    1.255119   0.000000
    13  H    2.003032   1.104688   0.000000
    14  O    5.887465   6.027653   7.086693   0.000000
    15  O    5.312670   5.093437   6.081145   2.252744   0.000000
    16  C    6.008495   5.965347   7.000253   1.251907   1.253861
    17  H    7.061128   6.994979   8.017280   1.996824   2.003995
    18  Fe   4.534137   4.869782   5.887981   2.031314   3.327816
    19  O    5.322572   6.019294   7.065375   2.819402   4.451479
    20  Fe   2.094309   3.082666   4.046892   4.581667   4.610292
    21  O    4.112471   5.108186   6.081594   4.380804   5.121194
    22  O    2.980361   3.926835   4.654016   5.230012   5.858907
    23  Fe   3.401321   3.003369   3.972112   3.487280   2.113921
    24  O    2.914813   3.224416   4.309385   2.978804   2.945087
    25  C    5.086092   5.970861   6.990095   3.799342   5.049435
    26  H    6.067152   7.006059   8.009773   4.529229   5.900767
    27  C    3.957924   4.687281   5.407537   4.982491   5.961080
    28  H    4.695853   5.414934   5.986697   5.957996   7.014542
    29  O    2.698219   3.945154   4.494965   6.691920   6.750468
    30  H    2.197793   3.371233   3.744038   7.092286   6.902721
    31  H    3.062895   4.295727   4.806744   6.801853   7.106111
    32  O    5.005214   4.238839   4.887263   4.835482   2.698290
    33  H    4.936830   4.260617   4.902243   5.203593   3.035208
    34  H    5.683325   5.027788   5.756589   4.398668   2.194482
                   16         17         18         19         20
    16  C    0.000000
    17  H    1.104524   0.000000
    18  Fe   2.968323   3.952062   0.000000
    19  O    3.843651   4.573779   2.023176   0.000000
    20  Fe   4.942008   5.952396   3.252170   3.418039   0.000000
    21  O    4.999644   5.826513   3.347090   2.253337   2.035305
    22  O    5.952037   7.001589   3.317889   3.563554   2.117643
    23  Fe   3.095319   4.064569   3.249823   4.670876   3.373755
    24  O    3.272074   4.355817   1.863715   2.995217   1.918932
    25  C    4.624100   5.345828   2.974276   1.254209   3.014739
    26  H    5.359892   5.932983   3.952097   1.998901   3.981333
    27  C    5.872561   6.893545   2.963501   3.399668   3.103952
    28  H    6.896866   7.901175   3.949356   4.289898   4.070941
    29  O    7.098906   8.078049   5.228545   4.982625   2.184053
    30  H    7.397993   8.407095   5.616478   5.668327   2.519315
    31  H    7.353296   8.359276   5.144501   4.890157   2.514418
    32  O    3.934821   4.493754   5.232540   6.616596   5.356698
    33  H    4.276920   4.794799   5.606696   6.761036   5.266826
    34  H    3.353922   3.738460   5.159482   6.490316   5.733673
                   21         22         23         24         25
    21  O    0.000000
    22  O    2.868330   0.000000
    23  Fe   4.678018   4.622390   0.000000
    24  O    2.967310   2.943634   1.919563   0.000000
    25  C    1.251838   3.415689   5.039428   3.296560   0.000000
    26  H    2.000270   4.300376   6.074108   4.384543   1.103614
    27  C    3.501972   1.253858   4.952604   3.273680   3.624884
    28  H    4.397439   2.004078   5.965355   4.357674   4.484885
    29  O    3.021299   2.691866   5.364462   4.077784   4.197126
    30  H    3.820229   3.050823   5.288751   4.274299   4.996274
    31  H    3.164035   2.176233   5.729400   4.267867   4.183972
    32  O    6.628435   6.760619   2.183226   4.078529   6.985561
    33  H    6.507287   6.898922   2.510096   4.262304   6.968828
    34  H    6.756641   7.123465   2.519156   4.280227   6.955992
                   26         27         28         29         30
    26  H    0.000000
    27  C    4.473098   0.000000
    28  H    5.198129   1.104540   0.000000
    29  O    4.829456   3.930621   4.484385   0.000000
    30  H    5.710641   4.290134   4.802808   0.968425   0.000000
    31  H    4.798349   3.338510   3.718673   0.968862   1.530681
    32  O    7.942991   7.109937   8.092435   7.167761   6.955410
    33  H    7.877151   7.395445   8.407572   6.944113   6.725635
    34  H    7.859817   7.372325   8.381179   7.675297   7.565718
                   31         32         33         34
    31  H    0.000000
    32  O    7.664933   0.000000
    33  H    7.544928   0.968805   0.000000
    34  H    8.150515   0.968655   1.530593   0.000000
 Symmetry turned off by external request.
 Stoichiometry    C6H10Fe3O15(15)
 Framework group  C1[X(C6H10Fe3O15)]
 Deg. of freedom    96
 Full point group                 C1      NOp   1
 Rotational constants (GHZ):           0.2445645           0.2121693           0.1635633
 Leave Link  202 at Wed Feb  1 10:55:42 2023, MaxMem= 14763950080 cpu:               0.0 elap:               0.2
 (Enter /software/commercial/gaussian/g16/AVX2/g16/l122.exe)
 Counterpoise: doing full-system calculation.
 Leave Link  122 at Wed Feb  1 10:55:42 2023, MaxMem= 14763950080 cpu:               0.0 elap:               0.1
 (Enter /software/commercial/gaussian/g16/AVX2/g16/l301.exe)
 General basis read from cards:  (5D, 7F)
 Centers:       4      8     13     17     26     28     30     31     33     34
 S 3 1.00
     Exponent=  3.4061341000D+01 Coefficients=  6.0251978000D-03
     Exponent=  5.1235746000D+00 Coefficients=  4.5021094000D-02
     Exponent=  1.1646626000D+00 Coefficients=  2.0189726000D-01
 S 1 1.00
     Exponent=  3.2723041000D-01 Coefficients=  1.0000000000D+00
 S 1 1.00
     Exponent=  1.0307241000D-01 Coefficients=  1.0000000000D+00
 P 1 1.00
     Exponent=  8.0000000000D-01 Coefficients=  1.0000000000D+00
 ****
 Centers:       1      2      5      6      9     10     11     14     15     19
 Centers:      21     22     24     29     32
 S 6 1.00
     Exponent=  2.7032382631D+04 Coefficients=  2.1726302465D-04
     Exponent=  4.0523871392D+03 Coefficients=  1.6838662199D-03
     Exponent=  9.2232722710D+02 Coefficients=  8.7395616265D-03
     Exponent=  2.6124070989D+02 Coefficients=  3.5239968808D-02
     Exponent=  8.5354641351D+01 Coefficients=  1.1153519115D-01
     Exponent=  3.1035035245D+01 Coefficients=  2.5588953961D-01
 S 2 1.00
     Exponent=  1.2260860728D+01 Coefficients=  3.9768730901D-01
     Exponent=  4.9987076005D+00 Coefficients=  2.4627849430D-01
 S 1 1.00
     Exponent=  1.1703108158D+00 Coefficients=  1.0000000000D+00
 S 1 1.00
     Exponent=  4.6474740994D-01 Coefficients=  1.0000000000D+00
 S 1 1.00
     Exponent=  1.8504536357D-01 Coefficients=  1.0000000000D+00
 P 4 1.00
     Exponent=  6.3274954801D+01 Coefficients=  6.0685103418D-03
     Exponent=  1.4627049379D+01 Coefficients=  4.1912575824D-02
     Exponent=  4.4501223456D+00 Coefficients=  1.6153841088D-01
     Exponent=  1.5275799647D+00 Coefficients=  3.5706951311D-01
 P 1 1.00
     Exponent=  5.2935117943D-01 Coefficients=  4.4794207502D-01
 P 1 1.00
     Exponent=  1.7478421270D-01 Coefficients=  2.4446069663D-01
 D 1 1.00
     Exponent=  2.3140000000D+00 Coefficients=  1.0000000000D+00
 D 1 1.00
     Exponent=  6.4500000000D-01 Coefficients=  1.0000000000D+00
 F 1 1.00
     Exponent=  1.4280000000D+00 Coefficients=  1.0000000000D+00
 ****
 Centers:       3      7     12     16     25     27
 S 6 1.00
     Exponent=  1.3575349682D+04 Coefficients=  2.2245814352D-04
     Exponent=  2.0352333680D+03 Coefficients=  1.7232738252D-03
     Exponent=  4.6322562359D+02 Coefficients=  8.9255715314D-03
     Exponent=  1.3120019598D+02 Coefficients=  3.5727984502D-02
     Exponent=  4.2853015891D+01 Coefficients=  1.1076259931D-01
     Exponent=  1.5584185766D+01 Coefficients=  2.4295627626D-01
 S 2 1.00
     Exponent=  6.2067138508D+00 Coefficients=  4.1440263448D-01
     Exponent=  2.5764896527D+00 Coefficients=  2.3744968655D-01
 S 1 1.00
     Exponent=  5.7696339419D-01 Coefficients=  1.0000000000D+00
 S 1 1.00
     Exponent=  2.2972831358D-01 Coefficients=  1.0000000000D+00
 S 1 1.00
     Exponent=  9.5164440028D-02 Coefficients=  1.0000000000D+00
 P 4 1.00
     Exponent=  3.4697232244D+01 Coefficients=  5.3333657805D-03
     Exponent=  7.9582622826D+00 Coefficients=  3.5864109092D-02
     Exponent=  2.3780826883D+00 Coefficients=  1.4215873329D-01
     Exponent=  8.1433208183D-01 Coefficients=  3.4270471845D-01
 P 1 1.00
     Exponent=  2.8887547253D-01 Coefficients=  4.6445822433D-01
 P 1 1.00
     Exponent=  1.0056823671D-01 Coefficients=  2.4955789874D-01
 D 1 1.00
     Exponent=  1.0970000000D+00 Coefficients=  1.0000000000D+00
 D 1 1.00
     Exponent=  3.1800000000D-01 Coefficients=  1.0000000000D+00
 F 1 1.00
     Exponent=  7.6100000000D-01 Coefficients=  1.0000000000D+00
 ****
 Centers:      18     20     23
 S 8 1.00
     Exponent=  3.0078484637D+05 Coefficients=  2.2806273096D-04
     Exponent=  4.5088970557D+04 Coefficients=  1.7681788761D-03
     Exponent=  1.0262516317D+04 Coefficients=  9.1927083490D-03
     Exponent=  2.9052897293D+03 Coefficients=  3.7355495807D-02
     Exponent=  9.4611487137D+02 Coefficients=  1.2151108426D-01
     Exponent=  3.3987832894D+02 Coefficients=  2.8818881468D-01
     Exponent=  1.3194425588D+02 Coefficients=  4.1126612677D-01
     Exponent=  5.2111494077D+01 Coefficients=  2.1518583573D-01
 S 4 1.00
     Exponent=  3.2948839267D+02 Coefficients= -2.4745216477D-02
     Exponent=  1.0192332739D+02 Coefficients= -1.1683089050D-01
     Exponent=  1.6240462745D+01 Coefficients=  5.5293621136D-01
     Exponent=  6.8840675801D+00 Coefficients=  5.3601640182D-01
 S 2 1.00
     Exponent=  1.0470693782D+01 Coefficients= -2.2912708577D-01
     Exponent=  1.7360039648D+00 Coefficients=  7.1159319984D-01
 S 1 1.00
     Exponent=  7.2577288979D-01 Coefficients=  1.0000000000D+00
 S 1 1.00
     Exponent=  1.1595528203D-01 Coefficients=  1.0000000000D+00
 S 1 1.00
     Exponent=  4.1968227746D-02 Coefficients=  1.0000000000D+00
 P 6 1.00
     Exponent=  1.5853959970D+03 Coefficients=  2.3793960179D-03
     Exponent=  3.7538006499D+02 Coefficients=  1.9253154755D-02
     Exponent=  1.2031816501D+02 Coefficients=  9.0021836536D-02
     Exponent=  4.4788749031D+01 Coefficients=  2.5798172356D-01
     Exponent=  1.7829278584D+01 Coefficients=  4.1492649744D-01
     Exponent=  7.2247153786D+00 Coefficients=  2.4207474784D-01
 P 3 1.00
     Exponent=  2.8143219756D+01 Coefficients= -2.9041755152D-02
     Exponent=  3.8743241412D+00 Coefficients=  5.5312260343D-01
     Exponent=  1.5410752281D+00 Coefficients=  9.6771136842D-01
 P 1 1.00
     Exponent=  5.8285615250D-01 Coefficients=  1.0000000000D+00
 P 1 1.00
     Exponent=  1.3491500000D-01 Coefficients=  1.0000000000D+00
 D 4 1.00
     Exponent=  6.1996675034D+01 Coefficients=  1.1971972255D-02
     Exponent=  1.7873732552D+01 Coefficients=  7.3210135410D-02
     Exponent=  6.2744782934D+00 Coefficients=  2.3103094314D-01
     Exponent=  2.3552337175D+00 Coefficients=  3.9910706494D-01
 D 1 1.00
     Exponent=  8.5432239901D-01 Coefficients=  4.1391589765D-01
 D 1 1.00
     Exponent=  2.7869254413D-01 Coefficients=  2.1909269782D-01
 D 1 1.00
     Exponent=  9.1000000000D-02 Coefficients=  1.0000000000D+00
 F 1 1.00
     Exponent=  1.5980000000D+00 Coefficients=  1.0000000000D+00
 ****
 Ernie: Thresh=  0.10000D-02 Tol=  0.10000D-05 Strict=F.
   846 basis functions,  1457 primitive gaussians,   972 cartesian basis functions
   129 alpha electrons      115 beta electrons
       nuclear repulsion energy      4415.6050854611 Hartrees.
 IExCor= 4134 DFT=T Ex+Corr=M06L ExCW=0 ScaHFX=  0.000000
 ScaDFX=  1.000000  1.000000  1.000000  1.000000 ScalE2=  1.000000  1.000000
 IRadAn=      5 IRanWt=     -1 IRanGd=            0 ICorTp=0 IEmpDi=  4
 NAtoms=   34 NActive=   34 NUniq=   34 SFac= 1.00D+00 NAtFMM=   60 NAOKFM=F Big=F
 Integral buffers will be    131072 words long.
 Raffenetti 2 integral format.
 Two-electron integral symmetry is turned off.
 Leave Link  301 at Wed Feb  1 10:55:43 2023, MaxMem= 14763950080 cpu:               0.1 elap:               0.2
 (Enter /software/commercial/gaussian/g16/AVX2/g16/l302.exe)
 NPDir=0 NMtPBC=     1 NCelOv=     1 NCel=       1 NClECP=     1 NCelD=      1
         NCelK=      1 NCelE2=     1 NClLst=     1 CellRange=     0.0.
 One-electron integrals computed using PRISM.
 NBasis=   846 RedAO= T EigKep=  5.21D-04  NBF=   846
 NBsUse=   846 1.00D-06 EigRej= -1.00D+00 NBFU=   846
 Precomputing XC quadrature grid using
 IXCGrd= 4 IRadAn=           5 IRanWt=          -1 IRanGd=           0 AccXCQ= 0.00D+00.
 Generated NRdTot=       0 NPtTot=           0 NUsed=           0 NTot=          32
 NSgBfM=   963   962   963   963   963 MxSgAt=    34 MxSgA2=    34.
 Leave Link  302 at Wed Feb  1 10:55:45 2023, MaxMem= 14763950080 cpu:               2.6 elap:               1.8
 (Enter /software/commercial/gaussian/g16/AVX2/g16/l303.exe)
 DipDrv:  MaxL=1.
 Leave Link  303 at Wed Feb  1 10:55:46 2023, MaxMem= 14763950080 cpu:               0.2 elap:               0.3
 (Enter /software/commercial/gaussian/g16/AVX2/g16/l401.exe)
 ExpMin= 4.20D-02 ExpMax= 3.01D+05 ExpMxC= 2.91D+03 IAcc=3 IRadAn=         5 AccDes= 0.00D+00
 Harris functional with IExCor= 1009 and IRadAn=       5 diagonalized for initial guess.
 HarFok:  IExCor= 1009 AccDes= 0.00D+00 IRadAn=         5 IDoV= 1 UseB2=F ITyADJ=14
 ICtDFT=  3500011 ScaDFX=  1.000000  1.000000  1.000000  1.000000
 FoFCou: FMM=F IPFlag=           0 FMFlag=      100000 FMFlg1=           0
         NFxFlg=           0 DoJE=T BraDBF=F KetDBF=T FulRan=T
         wScrn=  0.000000 ICntrl=       500 IOpCl=  0 I1Cent=   200000004 NGrid=           0
         NMat0=    1 NMatS0=      1 NMatT0=    0 NMatD0=    1 NMtDS0=    0 NMtDT0=    0
 Symmetry not used in FoFCou.
 Harris En= -5152.78151343827    
 JPrj=0 DoOrth=F DoCkMO=F.
 Initial guess <Sx>= 0.0000 <Sy>= 0.0000 <Sz>= 7.0000 <S**2>=56.0000 S= 7.0000
 Leave Link  401 at Wed Feb  1 10:56:01 2023, MaxMem= 14763950080 cpu:              29.4 elap:              15.1
 (Enter /software/commercial/gaussian/g16/AVX2/g16/l502.exe)
 Two-electron integral symmetry not used.
 UHF open shell SCF:
 Using DIIS extrapolation, IDIIS=  1040.
 NGot= 14763950080 LenX= 14762047750 LenY= 14761101994
 Requested convergence on RMS density matrix=1.00D-08 within 150 cycles.
 Requested convergence on MAX density matrix=1.00D-06.
 Requested convergence on             energy=1.00D-06.
 No special actions if energy rises.
 Fock matrices will be formed incrementally for  20 cycles.

 Cycle   1  Pass 1  IDiag  1:
 FoFJK:  IHMeth= 1 ICntrl=     500 DoSepK=F KAlg= 0 I1Cent=           0 FoldK=F
 IRaf= 790000000 NMat=       1 IRICut=       1 DoRegI=T DoRafI=F ISym2E= 0 IDoP0=0 IntGTp=1.
 FoFCou: FMM=F IPFlag=           0 FMFlag=      100000 FMFlg1=           0
         NFxFlg=           0 DoJE=T BraDBF=F KetDBF=F FulRan=T
         wScrn=  0.000000 ICntrl=       500 IOpCl=  0 I1Cent=           0 NGrid=           0
         NMat0=    1 NMatS0=      1 NMatT0=    0 NMatD0=    1 NMtDS0=    0 NMtDT0=    0
 Symmetry not used in FoFCou.
 E= -5153.98258706000    
 DIIS: error= 4.48D-02 at cycle   1 NSaved=   1.
 NSaved= 1 IEnMin= 1 EnMin= -5153.98258706000     IErMin= 1 ErrMin= 4.48D-02
 ErrMax= 4.48D-02  0.00D+00 EMaxC= 1.00D-01 BMatC= 8.53D+00 BMatP= 8.53D+00
 IDIUse=3 WtCom= 5.52D-01 WtEn= 4.48D-01
 Coeff-Com:  0.100D+01
 Coeff-En:   0.100D+01
 Coeff:      0.100D+01
 Gap=     0.439 Goal=   None    Shift=    0.000
 Gap=     0.017 Goal=   None    Shift=    0.000
 GapD=    0.017 DampG=0.250 DampE=0.250 DampFc=0.1250 IDamp=-1.
 Damping current iteration by 1.25D-01
 RMSDP=3.21D-03 MaxDP=4.95D-01              OVMax= 8.56D-01

 Cycle   2  Pass 1  IDiag  1:
 RMSU=  4.00D-04    CP:  9.97D-01
 E= -5154.19231742333     Delta-E=       -0.209730363331 Rises=F Damp=T
 DIIS: error= 1.90D-02 at cycle   2 NSaved=   2.
 NSaved= 2 IEnMin= 2 EnMin= -5154.19231742333     IErMin= 2 ErrMin= 1.90D-02
 ErrMax= 1.90D-02  0.00D+00 EMaxC= 1.00D-01 BMatC= 2.28D+00 BMatP= 8.53D+00
 IDIUse=3 WtCom= 8.10D-01 WtEn= 1.90D-01
 Coeff-Com: -0.379D+00 0.138D+01
 Coeff-En:   0.276D+00 0.724D+00
 Coeff:     -0.255D+00 0.125D+01
 Gap=     0.122 Goal=   None    Shift=    0.000
 Gap=     0.022 Goal=   None    Shift=    0.000
 RMSDP=1.53D-03 MaxDP=1.17D-01 DE=-2.10D-01 OVMax= 9.91D-01

 Cycle   3  Pass 1  IDiag  1:
 RMSU=  1.53D-03    CP:  9.92D-01  1.04D+00
 E= -5153.60151378409     Delta-E=        0.590803639239 Rises=F Damp=F
 DIIS: error= 5.27D-02 at cycle   3 NSaved=   3.
 NSaved= 3 IEnMin= 2 EnMin= -5154.19231742333     IErMin= 2 ErrMin= 1.90D-02
 ErrMax= 5.27D-02  0.00D+00 EMaxC= 1.00D-01 BMatC= 7.91D+00 BMatP= 2.28D+00
 IDIUse=2 WtCom= 0.00D+00 WtEn= 1.00D+00
 Coeff-En:   0.000D+00 0.681D+00 0.319D+00
 Coeff:      0.000D+00 0.681D+00 0.319D+00
 Gap=     0.287 Goal=   None    Shift=    0.000
 Gap=     0.048 Goal=   None    Shift=    0.000
 RMSDP=2.33D-03 MaxDP=3.19D-01 DE= 5.91D-01 OVMax= 7.82D-01

 Cycle   4  Pass 1  IDiag  1:
 RMSU=  1.33D-03    CP:  9.89D-01  3.00D+00 -3.26D-02
 E= -5148.09322579138     Delta-E=        5.508287992707 Rises=F Damp=F
 DIIS: error= 2.32D-01 at cycle   4 NSaved=   4.
 NSaved= 4 IEnMin= 2 EnMin= -5154.19231742333     IErMin= 2 ErrMin= 1.90D-02
 ErrMax= 2.32D-01  0.00D+00 EMaxC= 1.00D-01 BMatC= 4.94D+01 BMatP= 2.28D+00
 IDIUse=2 WtCom= 0.00D+00 WtEn= 1.00D+00
 EnCoef did   100 forward-backward iterations
 Coeff-En:   0.406D+00 0.231D-01 0.375D+00 0.196D+00
 Coeff:      0.406D+00 0.231D-01 0.375D+00 0.196D+00
 Gap=     0.233 Goal=   None    Shift=    0.000
 Gap=     0.036 Goal=   None    Shift=    0.000
 RMSDP=1.60D-03 MaxDP=3.12D-01 DE= 5.51D+00 OVMax= 8.70D-01

 Cycle   5  Pass 1  IDiag  1:
 RMSU=  9.70D-04    CP:  9.97D-01  1.85D+00  2.26D-01  2.75D-01
 E= -5153.70264390212     Delta-E=       -5.609418110744 Rises=F Damp=F
 DIIS: error= 9.68D-02 at cycle   5 NSaved=   5.
 NSaved= 5 IEnMin= 2 EnMin= -5154.19231742333     IErMin= 2 ErrMin= 1.90D-02
 ErrMax= 9.68D-02  0.00D+00 EMaxC= 1.00D-01 BMatC= 8.95D+00 BMatP= 2.28D+00
 IDIUse=2 WtCom= 0.00D+00 WtEn= 1.00D+00
 EnCoef did   100 forward-backward iterations
 Coeff-En:   0.356D+00 0.840D-02 0.280D+00 0.131D+00 0.225D+00
 Coeff:      0.356D+00 0.840D-02 0.280D+00 0.131D+00 0.225D+00
 Gap=     0.235 Goal=   None    Shift=    0.000
 Gap=     0.222 Goal=   None    Shift=    0.000
 RMSDP=1.38D-03 MaxDP=3.05D-01 DE=-5.61D+00 OVMax= 9.07D-01

 Cycle   6  Pass 1  IDiag  1:
 RMSU=  1.00D-03    CP:  9.96D-01  1.94D+00  1.75D-01  4.42D-01  5.41D-02
 E= -5153.03475094755     Delta-E=        0.667892954574 Rises=F Damp=F
 DIIS: error= 1.08D-01 at cycle   6 NSaved=   6.
 NSaved= 6 IEnMin= 2 EnMin= -5154.19231742333     IErMin= 2 ErrMin= 1.90D-02
 ErrMax= 1.08D-01  0.00D+00 EMaxC= 1.00D-01 BMatC= 1.28D+01 BMatP= 2.28D+00
 IDIUse=2 WtCom= 0.00D+00 WtEn= 1.00D+00
 EnCoef did     4 forward-backward iterations
 Coeff-En:   0.169D+00 0.000D+00 0.172D+00 0.000D+00 0.367D+00 0.293D+00
 Coeff:      0.169D+00 0.000D+00 0.172D+00 0.000D+00 0.367D+00 0.293D+00
 Gap=     0.127 Goal=   None    Shift=    0.000
 Gap=     0.052 Goal=   None    Shift=    0.000
 RMSDP=9.85D-04 MaxDP=1.29D-01 DE= 6.68D-01 OVMax= 4.85D-01

 Cycle   7  Pass 1  IDiag  1:
 RMSU=  5.45D-04    CP:  9.98D-01  9.76D-01  2.87D-01  2.27D-01  2.91D-01
                    CP:  3.99D-01
 E= -5154.74482549385     Delta-E=       -1.710074546296 Rises=F Damp=F
 DIIS: error= 2.58D-02 at cycle   7 NSaved=   7.
 NSaved= 7 IEnMin= 7 EnMin= -5154.74482549385     IErMin= 2 ErrMin= 1.90D-02
 ErrMax= 2.58D-02  0.00D+00 EMaxC= 1.00D-01 BMatC= 1.61D+00 BMatP= 2.28D+00
 IDIUse=3 WtCom= 7.42D-01 WtEn= 2.58D-01
 EnCoef did     2 forward-backward iterations
 Coeff-Com: -0.382D+00 0.636D+00 0.125D+00-0.258D-01 0.140D+00 0.396D-01
 Coeff-Com:  0.467D+00
 Coeff-En:   0.000D+00 0.000D+00 0.000D+00 0.000D+00 0.282D+00 0.604D-01
 Coeff-En:   0.658D+00
 Coeff:     -0.284D+00 0.473D+00 0.926D-01-0.192D-01 0.176D+00 0.450D-01
 Coeff:      0.516D+00
 Gap=     0.177 Goal=   None    Shift=    0.000
 Gap=     0.042 Goal=   None    Shift=    0.000
 RMSDP=8.23D-04 MaxDP=2.12D-01 DE=-1.71D+00 OVMax= 8.42D-01

 Cycle   8  Pass 1  IDiag  1:
 RMSU=  6.93D-04    CP:  9.97D-01  1.43D+00  2.76D-01  2.46D-01  4.00D-01
                    CP:  3.51D-01  2.89D-01
 E= -5154.25410730428     Delta-E=        0.490718189561 Rises=F Damp=F
 DIIS: error= 4.01D-02 at cycle   8 NSaved=   8.
 NSaved= 8 IEnMin= 7 EnMin= -5154.74482549385     IErMin= 2 ErrMin= 1.90D-02
 ErrMax= 4.01D-02  0.00D+00 EMaxC= 1.00D-01 BMatC= 4.42D+00 BMatP= 1.61D+00
 IDIUse=2 WtCom= 0.00D+00 WtEn= 1.00D+00
 EnCoef did     3 forward-backward iterations
 Coeff-En:   0.000D+00 0.000D+00 0.000D+00 0.000D+00 0.230D+00 0.000D+00
 Coeff-En:   0.591D+00 0.179D+00
 Coeff:      0.000D+00 0.000D+00 0.000D+00 0.000D+00 0.230D+00 0.000D+00
 Coeff:      0.591D+00 0.179D+00
 Gap=     0.236 Goal=   None    Shift=    0.000
 Gap=     0.006 Goal=   None    Shift=    0.000
 RMSDP=8.99D-04 MaxDP=2.46D-01 DE= 4.91D-01 OVMax= 9.48D-01

 Cycle   9  Pass 1  IDiag  1:
 RMSU=  4.82D-04    CP:  9.98D-01  1.77D+00  2.18D-01  3.12D-01  4.42D-01
                    CP:  4.18D-01  6.85D-01 -8.42D-03
 E= -5154.53079671299     Delta-E=       -0.276689408707 Rises=F Damp=F
 DIIS: error= 3.94D-02 at cycle   9 NSaved=   9.
 NSaved= 9 IEnMin= 7 EnMin= -5154.74482549385     IErMin= 2 ErrMin= 1.90D-02
 ErrMax= 3.94D-02  0.00D+00 EMaxC= 1.00D-01 BMatC= 3.04D+00 BMatP= 1.61D+00
 IDIUse=2 WtCom= 0.00D+00 WtEn= 1.00D+00
 EnCoef did     5 forward-backward iterations
 Coeff-En:   0.000D+00 0.000D+00 0.000D+00 0.000D+00 0.199D+00 0.000D+00
 Coeff-En:   0.473D+00 0.188D+00 0.140D+00
 Coeff:      0.000D+00 0.000D+00 0.000D+00 0.000D+00 0.199D+00 0.000D+00
 Coeff:      0.473D+00 0.188D+00 0.140D+00
 Gap=     0.188 Goal=   None    Shift=    0.000
 Gap=     0.014 Goal=   None    Shift=    0.000
 RMSDP=7.32D-04 MaxDP=2.26D-01 DE=-2.77D-01 OVMax= 9.03D-01

 Cycle  10  Pass 1  IDiag  1:
 RMSU=  3.54D-04    CP:  9.99D-01  1.40D+00  2.67D-01  2.30D-01  6.48D-01
                    CP:  1.68D-01  3.26D-01  1.60D-01  3.48D-02
 E= -5154.87261658263     Delta-E=       -0.341819869634 Rises=F Damp=F
 DIIS: error= 2.56D-02 at cycle  10 NSaved=  10.
 NSaved=10 IEnMin=10 EnMin= -5154.87261658263     IErMin= 2 ErrMin= 1.90D-02
 ErrMax= 2.56D-02  0.00D+00 EMaxC= 1.00D-01 BMatC= 8.13D-01 BMatP= 1.61D+00
 IDIUse=3 WtCom= 7.44D-01 WtEn= 2.56D-01
 EnCoef did     4 forward-backward iterations
 Coeff-Com: -0.872D-01 0.127D+00-0.110D-01-0.505D-02-0.147D-01-0.224D-01
 Coeff-Com:  0.310D+00 0.123D+00 0.158D+00 0.421D+00
 Coeff-En:   0.000D+00 0.000D+00 0.000D+00 0.000D+00 0.000D+00 0.000D+00
 Coeff-En:   0.245D+00 0.100D+00 0.165D+00 0.490D+00
 Coeff:     -0.649D-01 0.947D-01-0.816D-02-0.375D-02-0.109D-01-0.166D-01
 Coeff:      0.294D+00 0.117D+00 0.160D+00 0.439D+00
 Gap=     0.186 Goal=   None    Shift=    0.000
 Gap=     0.017 Goal=   None    Shift=    0.000
 RMSDP=4.92D-04 MaxDP=1.56D-01 DE=-3.42D-01 OVMax= 6.57D-01

 Cycle  11  Pass 1  IDiag  1:
 RMSU=  2.38D-04    CP:  9.99D-01  1.29D+00  2.43D-01  2.61D-01  4.01D-01
                    CP:  3.40D-01  6.05D-01  3.49D-01  9.41D-02  3.58D-01
 E= -5154.97047055344     Delta-E=       -0.097853970816 Rises=F Damp=F
 DIIS: error= 8.62D-03 at cycle  11 NSaved=  11.
 NSaved=11 IEnMin=11 EnMin= -5154.97047055344     IErMin=11 ErrMin= 8.62D-03
 ErrMax= 8.62D-03  0.00D+00 EMaxC= 1.00D-01 BMatC= 2.70D-01 BMatP= 8.13D-01
 IDIUse=3 WtCom= 9.14D-01 WtEn= 8.62D-02
 EnCoef did     7 forward-backward iterations
 Coeff-Com: -0.729D-02 0.130D-01-0.939D-02 0.216D-02-0.217D-01-0.185D-01
 Coeff-Com:  0.110D+00-0.322D-01 0.103D+00 0.355D+00 0.506D+00
 Coeff-En:   0.000D+00 0.000D+00 0.000D+00 0.000D+00 0.000D+00 0.000D+00
 Coeff-En:   0.594D-01 0.000D+00 0.903D-01 0.334D+00 0.517D+00
 Coeff:     -0.666D-02 0.119D-01-0.858D-02 0.197D-02-0.198D-01-0.169D-01
 Coeff:      0.105D+00-0.294D-01 0.102D+00 0.353D+00 0.507D+00
 Gap=     0.179 Goal=   None    Shift=    0.000
 Gap=     0.019 Goal=   None    Shift=    0.000
 RMSDP=3.35D-04 MaxDP=9.65D-02 DE=-9.79D-02 OVMax= 4.53D-01

 Cycle  12  Pass 1  IDiag  1:
 RMSU=  1.49D-04    CP:  9.99D-01  1.30D+00  2.45D-01  2.56D-01  4.41D-01
                    CP:  2.90D-01  7.28D-01  5.56D-02  3.75D-01  4.20D-01
                    CP:  3.88D-01
 E= -5154.98334238850     Delta-E=       -0.012871835061 Rises=F Damp=F
 DIIS: error= 9.96D-03 at cycle  12 NSaved=  12.
 NSaved=12 IEnMin=12 EnMin= -5154.98334238850     IErMin=11 ErrMin= 8.62D-03
 ErrMax= 9.96D-03  0.00D+00 EMaxC= 1.00D-01 BMatC= 1.86D-01 BMatP= 2.70D-01
 IDIUse=3 WtCom= 9.14D-01 WtEn= 8.62D-02
 EnCoef did     3 forward-backward iterations
 Coeff-Com: -0.228D-01 0.267D-01 0.169D-03 0.247D-02-0.192D-01 0.130D-03
 Coeff-Com: -0.196D-02-0.281D-01-0.367D-01 0.228D+00 0.419D+00 0.433D+00
 Coeff-En:   0.000D+00 0.000D+00 0.000D+00 0.000D+00 0.000D+00 0.000D+00
 Coeff-En:   0.000D+00 0.000D+00 0.000D+00 0.198D+00 0.379D+00 0.423D+00
 Coeff:     -0.208D-01 0.244D-01 0.154D-03 0.225D-02-0.176D-01 0.119D-03
 Coeff:     -0.179D-02-0.257D-01-0.335D-01 0.226D+00 0.415D+00 0.432D+00
 Gap=     0.181 Goal=   None    Shift=    0.000
 Gap=     0.017 Goal=   None    Shift=    0.000
 RMSDP=2.42D-04 MaxDP=6.97D-02 DE=-1.29D-02 OVMax= 3.34D-01

 Cycle  13  Pass 1  IDiag  1:
 RMSU=  4.10D-05    CP:  9.99D-01  1.30D+00  2.45D-01  2.52D-01  4.64D-01
                    CP:  2.65D-01  5.70D-01  2.07D-01  1.26D-01  6.92D-01
                    CP:  7.17D-01  4.21D-01
 E= -5155.01659699678     Delta-E=       -0.033254608279 Rises=F Damp=F
 DIIS: error= 2.62D-03 at cycle  13 NSaved=  13.
 NSaved=13 IEnMin=13 EnMin= -5155.01659699678     IErMin=13 ErrMin= 2.62D-03
 ErrMax= 2.62D-03  0.00D+00 EMaxC= 1.00D-01 BMatC= 1.47D-02 BMatP= 1.86D-01
 IDIUse=3 WtCom= 9.74D-01 WtEn= 2.62D-02
 Coeff-Com: -0.650D-02 0.632D-02 0.826D-03 0.221D-03-0.702D-04 0.129D-02
 Coeff-Com: -0.109D-01-0.104D-01-0.105D-01 0.137D-01 0.101D+00 0.254D+00
 Coeff-Com:  0.661D+00
 Coeff-En:   0.000D+00 0.000D+00 0.000D+00 0.000D+00 0.000D+00 0.000D+00
 Coeff-En:   0.000D+00 0.000D+00 0.000D+00 0.000D+00 0.000D+00 0.198D+00
 Coeff-En:   0.802D+00
 Coeff:     -0.633D-02 0.616D-02 0.805D-03 0.215D-03-0.684D-04 0.126D-02
 Coeff:     -0.106D-01-0.102D-01-0.103D-01 0.133D-01 0.979D-01 0.253D+00
 Coeff:      0.665D+00
 Gap=     0.181 Goal=   None    Shift=    0.000
 Gap=     0.017 Goal=   None    Shift=    0.000
 RMSDP=5.93D-05 MaxDP=1.68D-02 DE=-3.33D-02 OVMax= 7.97D-02

 Cycle  14  Pass 1  IDiag  1:
 RMSU=  1.52D-05    CP:  9.99D-01  1.30D+00  2.42D-01  2.55D-01  4.53D-01
                    CP:  2.76D-01  6.12D-01  1.74D-01  1.78D-01  6.16D-01
                    CP:  7.20D-01  5.63D-01  6.88D-01
 E= -5155.01933137604     Delta-E=       -0.002734379261 Rises=F Damp=F
 DIIS: error= 4.05D-04 at cycle  14 NSaved=  14.
 NSaved=14 IEnMin=14 EnMin= -5155.01933137604     IErMin=14 ErrMin= 4.05D-04
 ErrMax= 4.05D-04  0.00D+00 EMaxC= 1.00D-01 BMatC= 7.61D-04 BMatP= 1.47D-02
 IDIUse=3 WtCom= 9.96D-01 WtEn= 4.05D-03
 Coeff-Com:  0.622D-03-0.116D-02-0.174D-03-0.266D-03 0.430D-03 0.136D-02
 Coeff-Com: -0.795D-02-0.430D-03-0.178D-02-0.116D-01-0.849D-02 0.108D+00
 Coeff-Com:  0.421D+00 0.501D+00
 Coeff-En:   0.000D+00 0.000D+00 0.000D+00 0.000D+00 0.000D+00 0.000D+00
 Coeff-En:   0.000D+00 0.000D+00 0.000D+00 0.000D+00 0.000D+00 0.000D+00
 Coeff-En:   0.597D-01 0.940D+00
 Coeff:      0.619D-03-0.116D-02-0.174D-03-0.265D-03 0.428D-03 0.136D-02
 Coeff:     -0.792D-02-0.428D-03-0.178D-02-0.115D-01-0.845D-02 0.107D+00
 Coeff:      0.420D+00 0.503D+00
 Gap=     0.180 Goal=   None    Shift=    0.000
 Gap=     0.017 Goal=   None    Shift=    0.000
 RMSDP=1.22D-05 MaxDP=1.78D-03 DE=-2.73D-03 OVMax= 9.30D-03

 Cycle  15  Pass 1  IDiag  1:
 RMSU=  8.81D-06    CP:  9.99D-01  1.30D+00  2.42D-01  2.55D-01  4.49D-01
                    CP:  2.79D-01  6.16D-01  1.74D-01  1.80D-01  6.08D-01
                    CP:  7.21D-01  5.60D-01  7.25D-01  6.40D-01
 E= -5155.01933045639     Delta-E=        0.000000919652 Rises=F Damp=F
 DIIS: error= 7.03D-04 at cycle  15 NSaved=  15.
 NSaved=15 IEnMin=14 EnMin= -5155.01933137604     IErMin=14 ErrMin= 4.05D-04
 ErrMax= 7.03D-04  0.00D+00 EMaxC= 1.00D-01 BMatC= 7.01D-04 BMatP= 7.61D-04
 IDIUse=3 WtCom= 9.96D-01 WtEn= 4.05D-03
 EnCoef did     3 forward-backward iterations
 Coeff-Com:  0.327D-02-0.387D-02-0.618D-03-0.121D-03 0.625D-04 0.627D-03
 Coeff-Com: -0.564D-02 0.212D-03-0.161D-03 0.515D-04-0.215D-01 0.371D-01
 Coeff-Com:  0.195D+00 0.369D+00 0.427D+00
 Coeff-En:   0.000D+00 0.000D+00 0.000D+00 0.000D+00 0.000D+00 0.000D+00
 Coeff-En:   0.000D+00 0.000D+00 0.000D+00 0.000D+00 0.000D+00 0.000D+00
 Coeff-En:   0.673D-01 0.416D+00 0.517D+00
 Coeff:      0.326D-02-0.385D-02-0.616D-03-0.121D-03 0.623D-04 0.624D-03
 Coeff:     -0.561D-02 0.211D-03-0.160D-03 0.513D-04-0.215D-01 0.369D-01
 Coeff:      0.194D+00 0.369D+00 0.428D+00
 Gap=     0.180 Goal=   None    Shift=    0.000
 Gap=     0.017 Goal=   None    Shift=    0.000
 RMSDP=7.79D-06 MaxDP=1.79D-03 DE= 9.20D-07 OVMax= 9.05D-03

 Cycle  16  Pass 1  IDiag  1:
 RMSU=  3.49D-06    CP:  9.99D-01  1.30D+00  2.42D-01  2.55D-01  4.52D-01
                    CP:  2.76D-01  6.11D-01  1.75D-01  1.77D-01  6.18D-01
                    CP:  7.15D-01  5.63D-01  7.43D-01  7.19D-01  7.13D-01
 E= -5155.01944101192     Delta-E=       -0.000110555535 Rises=F Damp=F
 DIIS: error= 3.03D-04 at cycle  16 NSaved=  16.
 NSaved=16 IEnMin=16 EnMin= -5155.01944101192     IErMin=16 ErrMin= 3.03D-04
 ErrMax= 3.03D-04  0.00D+00 EMaxC= 1.00D-01 BMatC= 1.31D-04 BMatP= 7.01D-04
 IDIUse=3 WtCom= 9.97D-01 WtEn= 3.03D-03
 Coeff-Com:  0.353D-02-0.407D-02-0.578D-03 0.166D-04-0.420D-04 0.170D-04
 Coeff-Com: -0.260D-02-0.263D-03 0.521D-03 0.670D-02-0.165D-01-0.133D-02
 Coeff-Com:  0.411D-01 0.175D+00 0.301D+00 0.497D+00
 Coeff-En:   0.000D+00 0.000D+00 0.000D+00 0.000D+00 0.000D+00 0.000D+00
 Coeff-En:   0.000D+00 0.000D+00 0.000D+00 0.000D+00 0.000D+00 0.000D+00
 Coeff-En:   0.358D-02 0.000D+00 0.000D+00 0.996D+00
 Coeff:      0.352D-02-0.406D-02-0.576D-03 0.166D-04-0.419D-04 0.169D-04
 Coeff:     -0.259D-02-0.263D-03 0.519D-03 0.668D-02-0.165D-01-0.133D-02
 Coeff:      0.410D-01 0.175D+00 0.300D+00 0.499D+00
 Gap=     0.180 Goal=   None    Shift=    0.000
 Gap=     0.017 Goal=   None    Shift=    0.000
 RMSDP=5.95D-06 MaxDP=1.43D-03 DE=-1.11D-04 OVMax= 7.87D-03

 Cycle  17  Pass 1  IDiag  1:
 RMSU=  2.42D-06    CP:  9.99D-01  1.30D+00  2.42D-01  2.55D-01  4.54D-01
                    CP:  2.74D-01  6.10D-01  1.71D-01  1.79D-01  6.24D-01
                    CP:  7.07D-01  5.77D-01  7.44D-01  7.40D-01  7.28D-01
                    CP:  8.18D-01
 E= -5155.01945879470     Delta-E=       -0.000017782779 Rises=F Damp=F
 DIIS: error= 1.44D-04 at cycle  17 NSaved=  17.
 NSaved=17 IEnMin=17 EnMin= -5155.01945879470     IErMin=17 ErrMin= 1.44D-04
 ErrMax= 1.44D-04  0.00D+00 EMaxC= 1.00D-01 BMatC= 3.93D-05 BMatP= 1.31D-04
 IDIUse=3 WtCom= 9.99D-01 WtEn= 1.44D-03
 EnCoef did     8 forward-backward iterations
 Coeff-Com:  0.152D-02-0.183D-02-0.949D-04 0.169D-04-0.188D-03 0.394D-04
 Coeff-Com: -0.877D-03 0.483D-04-0.244D-03 0.252D-02-0.418D-02-0.171D-02
 Coeff-Com:  0.273D-01 0.559D-01 0.662D-01 0.256D+00 0.600D+00
 Coeff-En:   0.000D+00 0.000D+00 0.000D+00 0.000D+00 0.000D+00 0.000D+00
 Coeff-En:   0.000D+00 0.000D+00 0.000D+00 0.000D+00 0.000D+00 0.000D+00
 Coeff-En:   0.693D-02 0.000D+00 0.000D+00 0.206D+00 0.787D+00
 Coeff:      0.152D-02-0.183D-02-0.948D-04 0.168D-04-0.187D-03 0.393D-04
 Coeff:     -0.876D-03 0.482D-04-0.244D-03 0.252D-02-0.417D-02-0.171D-02
 Coeff:      0.272D-01 0.558D-01 0.661D-01 0.255D+00 0.600D+00
 Gap=     0.180 Goal=   None    Shift=    0.000
 Gap=     0.017 Goal=   None    Shift=    0.000
 RMSDP=3.30D-06 MaxDP=7.79D-04 DE=-1.78D-05 OVMax= 4.44D-03

 Cycle  18  Pass 1  IDiag  1:
 RMSU=  1.29D-06    CP:  9.99D-01  1.30D+00  2.42D-01  2.55D-01  4.54D-01
                    CP:  2.75D-01  6.09D-01  1.73D-01  1.76D-01  6.24D-01
                    CP:  7.11D-01  5.67D-01  7.51D-01  7.56D-01  7.89D-01
                    CP:  1.03D+00  9.81D-01
 E= -5155.01946388421     Delta-E=       -0.000005089507 Rises=F Damp=F
 DIIS: error= 8.48D-05 at cycle  18 NSaved=  18.
 NSaved=18 IEnMin=18 EnMin= -5155.01946388421     IErMin=18 ErrMin= 8.48D-05
 ErrMax= 8.48D-05  0.00D+00 EMaxC= 1.00D-01 BMatC= 1.23D-05 BMatP= 3.93D-05
 IDIUse=1 WtCom= 1.00D+00 WtEn= 0.00D+00
 Coeff-Com:  0.760D-03-0.918D-03 0.128D-03-0.453D-05-0.349D-04-0.643D-04
 Coeff-Com:  0.860D-05-0.679D-04 0.401D-04 0.655D-03 0.567D-03-0.337D-02
 Coeff-Com:  0.104D-01-0.135D-02-0.361D-01 0.805D-01 0.506D+00 0.443D+00
 Coeff:      0.760D-03-0.918D-03 0.128D-03-0.453D-05-0.349D-04-0.643D-04
 Coeff:      0.860D-05-0.679D-04 0.401D-04 0.655D-03 0.567D-03-0.337D-02
 Coeff:      0.104D-01-0.135D-02-0.361D-01 0.805D-01 0.506D+00 0.443D+00
 Gap=     0.180 Goal=   None    Shift=    0.000
 Gap=     0.017 Goal=   None    Shift=    0.000
 RMSDP=1.52D-06 MaxDP=2.85D-04 DE=-5.09D-06 OVMax= 1.93D-03

 Cycle  19  Pass 1  IDiag  1:
 RMSU=  5.84D-07    CP:  9.99D-01  1.30D+00  2.42D-01  2.55D-01  4.54D-01
                    CP:  2.74D-01  6.09D-01  1.73D-01  1.76D-01  6.25D-01
                    CP:  7.10D-01  5.69D-01  7.54D-01  7.67D-01  7.96D-01
                    CP:  1.17D+00  1.34D+00  9.03D-01
 E= -5155.01946613800     Delta-E=       -0.000002253792 Rises=F Damp=F
 DIIS: error= 3.23D-05 at cycle  19 NSaved=  19.
 NSaved=19 IEnMin=19 EnMin= -5155.01946613800     IErMin=19 ErrMin= 3.23D-05
 ErrMax= 3.23D-05  0.00D+00 EMaxC= 1.00D-01 BMatC= 1.77D-06 BMatP= 1.23D-05
 IDIUse=1 WtCom= 1.00D+00 WtEn= 0.00D+00
 Coeff-Com:  0.302D-03-0.359D-03 0.145D-03-0.223D-04-0.129D-05-0.233D-04
 Coeff-Com:  0.657D-04-0.121D-04-0.982D-05-0.261D-03 0.144D-02-0.534D-03
 Coeff-Com:  0.454D-02-0.119D-01-0.431D-01-0.311D-01 0.164D+00 0.237D+00
 Coeff-Com:  0.679D+00
 Coeff:      0.302D-03-0.359D-03 0.145D-03-0.223D-04-0.129D-05-0.233D-04
 Coeff:      0.657D-04-0.121D-04-0.982D-05-0.261D-03 0.144D-02-0.534D-03
 Coeff:      0.454D-02-0.119D-01-0.431D-01-0.311D-01 0.164D+00 0.237D+00
 Coeff:      0.679D+00
 Gap=     0.180 Goal=   None    Shift=    0.000
 Gap=     0.017 Goal=   None    Shift=    0.000
 RMSDP=1.26D-06 MaxDP=2.23D-04 DE=-2.25D-06 OVMax= 1.69D-03

 Cycle  20  Pass 1  IDiag  1:
 RMSU=  3.47D-07    CP:  9.99D-01  1.30D+00  2.43D-01  2.55D-01  4.54D-01
                    CP:  2.74D-01  6.08D-01  1.73D-01  1.75D-01  6.25D-01
                    CP:  7.10D-01  5.68D-01  7.57D-01  7.73D-01  8.23D-01
                    CP:  1.31D+00  1.59D+00  1.21D+00  1.25D+00
 E= -5155.01946640465     Delta-E=       -0.000000266653 Rises=F Damp=F
 DIIS: error= 1.99D-05 at cycle  20 NSaved=  20.
 NSaved=20 IEnMin=20 EnMin= -5155.01946640465     IErMin=20 ErrMin= 1.99D-05
 ErrMax= 1.99D-05  0.00D+00 EMaxC= 1.00D-01 BMatC= 8.62D-07 BMatP= 1.77D-06
 IDIUse=1 WtCom= 1.00D+00 WtEn= 0.00D+00
 Coeff-Com:  0.233D-04-0.361D-04 0.322D-04-0.737D-05-0.570D-07 0.439D-05
 Coeff-Com:  0.128D-03 0.172D-04-0.252D-04-0.350D-03 0.380D-03 0.138D-02
 Coeff-Com: -0.364D-02-0.541D-02-0.696D-02-0.459D-01-0.887D-01-0.864D-01
 Coeff-Com:  0.436D+00 0.799D+00
 Coeff:      0.233D-04-0.361D-04 0.322D-04-0.737D-05-0.570D-07 0.439D-05
 Coeff:      0.128D-03 0.172D-04-0.252D-04-0.350D-03 0.380D-03 0.138D-02
 Coeff:     -0.364D-02-0.541D-02-0.696D-02-0.459D-01-0.887D-01-0.864D-01
 Coeff:      0.436D+00 0.799D+00
 Gap=     0.180 Goal=   None    Shift=    0.000
 Gap=     0.017 Goal=   None    Shift=    0.000
 RMSDP=1.10D-06 MaxDP=1.32D-04 DE=-2.67D-07 OVMax= 1.52D-03

 Cycle  21  Pass 1  IDiag  1:
 Restarting incremental Fock formation.
 E= -5155.01946652110     Delta-E=       -0.000000116443 Rises=F Damp=F
 DIIS: error= 1.59D-05 at cycle  21 NSaved=  20.
 NSaved=20 IEnMin=20 EnMin= -5155.01946652110     IErMin=20 ErrMin= 1.59D-05
 ErrMax= 1.59D-05  0.00D+00 EMaxC= 1.00D-01 BMatC= 5.83D-07 BMatP= 8.62D-07
 IDIUse=1 WtCom= 1.00D+00 WtEn= 0.00D+00
 Coeff-Com: -0.102D-03 0.118D-03-0.232D-04 0.241D-05 0.946D-05 0.136D-03
 Coeff-Com:  0.180D-04-0.234D-04-0.211D-03-0.384D-03 0.140D-02-0.523D-02
 Coeff-Com:  0.120D-02 0.134D-01-0.163D-01-0.111D+00-0.153D+00 0.107D+00
 Coeff-Com:  0.549D+00 0.613D+00
 Coeff:     -0.102D-03 0.118D-03-0.232D-04 0.241D-05 0.946D-05 0.136D-03
 Coeff:      0.180D-04-0.234D-04-0.211D-03-0.384D-03 0.140D-02-0.523D-02
 Coeff:      0.120D-02 0.134D-01-0.163D-01-0.111D+00-0.153D+00 0.107D+00
 Coeff:      0.549D+00 0.613D+00
 Gap=     0.180 Goal=   None    Shift=    0.000
 Gap=     0.017 Goal=   None    Shift=    0.000
 RMSDP=7.26D-07 MaxDP=9.36D-05 DE=-1.16D-07 OVMax= 1.00D-03

 Cycle  22  Pass 1  IDiag  1:
 RMSU=  7.26D-07    CP:  1.00D+00
 E= -5155.01946665204     Delta-E=       -0.000000130945 Rises=F Damp=F
 DIIS: error= 5.27D-06 at cycle  22 NSaved=  20.
 NSaved=20 IEnMin=20 EnMin= -5155.01946665204     IErMin=20 ErrMin= 5.27D-06
 ErrMax= 5.27D-06  0.00D+00 EMaxC= 1.00D-01 BMatC= 7.90D-08 BMatP= 5.83D-07
 IDIUse=1 WtCom= 1.00D+00 WtEn= 0.00D+00
 Coeff-Com: -0.135D-03 0.165D-03-0.243D-04 0.442D-05 0.862D-04 0.103D-04
 Coeff-Com:  0.586D-05-0.504D-04-0.376D-03 0.391D-03-0.314D-02 0.152D-02
 Coeff-Com:  0.103D-01 0.389D-02-0.434D-01-0.680D-01-0.591D-01 0.489D-01
 Coeff-Com:  0.388D+00 0.721D+00
 Coeff:     -0.135D-03 0.165D-03-0.243D-04 0.442D-05 0.862D-04 0.103D-04
 Coeff:      0.586D-05-0.504D-04-0.376D-03 0.391D-03-0.314D-02 0.152D-02
 Coeff:      0.103D-01 0.389D-02-0.434D-01-0.680D-01-0.591D-01 0.489D-01
 Coeff:      0.388D+00 0.721D+00
 Gap=     0.180 Goal=   None    Shift=    0.000
 Gap=     0.017 Goal=   None    Shift=    0.000
 RMSDP=5.82D-07 MaxDP=7.63D-05 DE=-1.31D-07 OVMax= 8.07D-04

 Cycle  23  Pass 1  IDiag  1:
 RMSU=  1.53D-07    CP:  1.00D+00  1.77D+00
 E= -5155.01946667852     Delta-E=       -0.000000026479 Rises=F Damp=F
 DIIS: error= 2.99D-06 at cycle  23 NSaved=  20.
 NSaved=20 IEnMin=20 EnMin= -5155.01946667852     IErMin=20 ErrMin= 2.99D-06
 ErrMax= 2.99D-06  0.00D+00 EMaxC= 1.00D-01 BMatC= 3.50D-08 BMatP= 7.90D-08
 IDIUse=1 WtCom= 1.00D+00 WtEn= 0.00D+00
 Coeff-Com: -0.106D-03 0.133D-03 0.589D-05-0.205D-04-0.699D-08 0.122D-04
 Coeff-Com:  0.154D-04 0.516D-04-0.463D-03 0.529D-03-0.904D-03-0.233D-02
 Coeff-Com:  0.638D-02 0.222D-01 0.425D-01-0.803D-01-0.285D+00-0.780D-01
 Coeff-Com:  0.636D+00 0.739D+00
 Coeff:     -0.106D-03 0.133D-03 0.589D-05-0.205D-04-0.699D-08 0.122D-04
 Coeff:      0.154D-04 0.516D-04-0.463D-03 0.529D-03-0.904D-03-0.233D-02
 Coeff:      0.638D-02 0.222D-01 0.425D-01-0.803D-01-0.285D+00-0.780D-01
 Coeff:      0.636D+00 0.739D+00
 Gap=     0.180 Goal=   None    Shift=    0.000
 Gap=     0.017 Goal=   None    Shift=    0.000
 RMSDP=5.53D-07 MaxDP=7.10D-05 DE=-2.65D-08 OVMax= 7.70D-04

 Cycle  24  Pass 1  IDiag  1:
 RMSU=  1.54D-07    CP:  1.00D+00  2.49D+00  1.73D+00
 E= -5155.01946669112     Delta-E=       -0.000000012597 Rises=F Damp=F
 DIIS: error= 2.43D-06 at cycle  24 NSaved=  20.
 NSaved=20 IEnMin=20 EnMin= -5155.01946669112     IErMin=20 ErrMin= 2.43D-06
 ErrMax= 2.43D-06  0.00D+00 EMaxC= 1.00D-01 BMatC= 2.26D-08 BMatP= 3.50D-08
 IDIUse=1 WtCom= 1.00D+00 WtEn= 0.00D+00
 Coeff-Com: -0.308D-04 0.373D-04-0.630D-04-0.230D-06 0.198D-04 0.345D-04
 Coeff-Com:  0.165D-03-0.467D-03 0.165D-02-0.101D-02-0.500D-02 0.101D-02
 Coeff-Com:  0.225D-01 0.515D-01-0.202D-01-0.165D+00-0.191D+00 0.609D-01
 Coeff-Com:  0.384D+00 0.861D+00
 Coeff:     -0.308D-04 0.373D-04-0.630D-04-0.230D-06 0.198D-04 0.345D-04
 Coeff:      0.165D-03-0.467D-03 0.165D-02-0.101D-02-0.500D-02 0.101D-02
 Coeff:      0.225D-01 0.515D-01-0.202D-01-0.165D+00-0.191D+00 0.609D-01
 Coeff:      0.384D+00 0.861D+00
 Gap=     0.180 Goal=   None    Shift=    0.000
 Gap=     0.017 Goal=   None    Shift=    0.000
 RMSDP=3.58D-07 MaxDP=4.53D-05 DE=-1.26D-08 OVMax= 4.98D-04

 Cycle  25  Pass 1  IDiag  1:
 RMSU=  6.02D-08    CP:  1.00D+00  2.94D+00  2.38D+00  1.67D+00
 E= -5155.01946669796     Delta-E=       -0.000000006839 Rises=F Damp=F
 DIIS: error= 1.29D-06 at cycle  25 NSaved=  20.
 NSaved=20 IEnMin=20 EnMin= -5155.01946669796     IErMin=20 ErrMin= 1.29D-06
 ErrMax= 1.29D-06  0.00D+00 EMaxC= 1.00D-01 BMatC= 4.23D-09 BMatP= 2.26D-08
 IDIUse=1 WtCom= 1.00D+00 WtEn= 0.00D+00
 Coeff-Com: -0.520D-06-0.239D-04-0.314D-05 0.230D-05 0.916D-05 0.119D-03
 Coeff-Com: -0.137D-03 0.620D-03-0.731D-03-0.264D-02-0.265D-02 0.199D-02
 Coeff-Com:  0.168D-01 0.146D-01-0.859D-03-0.759D-01-0.159D+00-0.301D-01
 Coeff-Com:  0.444D+00 0.794D+00
 Coeff:     -0.520D-06-0.239D-04-0.314D-05 0.230D-05 0.916D-05 0.119D-03
 Coeff:     -0.137D-03 0.620D-03-0.731D-03-0.264D-02-0.265D-02 0.199D-02
 Coeff:      0.168D-01 0.146D-01-0.859D-03-0.759D-01-0.159D+00-0.301D-01
 Coeff:      0.444D+00 0.794D+00
 Gap=     0.180 Goal=   None    Shift=    0.000
 Gap=     0.017 Goal=   None    Shift=    0.000
 RMSDP=1.87D-07 MaxDP=2.28D-05 DE=-6.84D-09 OVMax= 2.59D-04

 Cycle  26  Pass 1  IDiag  1:
 RMSU=  1.12D-07    CP:  1.00D+00  3.00D+00  2.76D+00  2.16D+00  1.46D+00
 E= -5155.01946669929     Delta-E=       -0.000000001335 Rises=F Damp=F
 DIIS: error= 5.11D-07 at cycle  26 NSaved=  20.
 NSaved=20 IEnMin=20 EnMin= -5155.01946669929     IErMin=20 ErrMin= 5.11D-07
 ErrMax= 5.11D-07  0.00D+00 EMaxC= 1.00D-01 BMatC= 7.37D-10 BMatP= 4.23D-09
 IDIUse=1 WtCom= 1.00D+00 WtEn= 0.00D+00
 Coeff-Com:  0.630D-06-0.763D-06-0.355D-05-0.245D-05 0.209D-04 0.166D-04
 Coeff-Com:  0.895D-04-0.137D-03-0.508D-03-0.153D-02-0.226D-02-0.124D-03
 Coeff-Com:  0.855D-02 0.208D-01-0.785D-02-0.890D-01-0.786D-01 0.971D-01
 Coeff-Com:  0.460D+00 0.594D+00
 Coeff:      0.630D-06-0.763D-06-0.355D-05-0.245D-05 0.209D-04 0.166D-04
 Coeff:      0.895D-04-0.137D-03-0.508D-03-0.153D-02-0.226D-02-0.124D-03
 Coeff:      0.855D-02 0.208D-01-0.785D-02-0.890D-01-0.786D-01 0.971D-01
 Coeff:      0.460D+00 0.594D+00
 Gap=     0.180 Goal=   None    Shift=    0.000
 Gap=     0.017 Goal=   None    Shift=    0.000
 RMSDP=5.93D-08 MaxDP=6.49D-06 DE=-1.34D-09 OVMax= 8.18D-05

 Cycle  27  Pass 1  IDiag  1:
 RMSU=  2.46D-08    CP:  1.00D+00  3.00D+00  2.84D+00  2.21D+00  1.68D+00
                    CP:  1.45D+00
 E= -5155.01946669958     Delta-E=       -0.000000000284 Rises=F Damp=F
 DIIS: error= 5.91D-07 at cycle  27 NSaved=  20.
 NSaved=20 IEnMin=20 EnMin= -5155.01946669958     IErMin=19 ErrMin= 5.11D-07
 ErrMax= 5.91D-07  0.00D+00 EMaxC= 1.00D-01 BMatC= 6.14D-10 BMatP= 7.37D-10
 IDIUse=1 WtCom= 1.00D+00 WtEn= 0.00D+00
 Coeff-Com:  0.667D-05-0.283D-05-0.845D-06-0.196D-04 0.433D-04-0.107D-03
 Coeff-Com:  0.630D-04 0.186D-03-0.613D-03-0.188D-02-0.479D-02 0.299D-02
 Coeff-Com:  0.148D-01 0.142D-01-0.217D-01-0.484D-01-0.446D-01 0.106D+00
 Coeff-Com:  0.463D+00 0.521D+00
 Coeff:      0.667D-05-0.283D-05-0.845D-06-0.196D-04 0.433D-04-0.107D-03
 Coeff:      0.630D-04 0.186D-03-0.613D-03-0.188D-02-0.479D-02 0.299D-02
 Coeff:      0.148D-01 0.142D-01-0.217D-01-0.484D-01-0.446D-01 0.106D+00
 Coeff:      0.463D+00 0.521D+00
 Gap=     0.180 Goal=   None    Shift=    0.000
 Gap=     0.017 Goal=   None    Shift=    0.000
 RMSDP=3.02D-08 MaxDP=3.34D-06 DE=-2.84D-10 OVMax= 4.14D-05

 Cycle  28  Pass 1  IDiag  1:
 RMSU=  1.47D-08    CP:  1.00D+00  3.00D+00  2.90D+00  2.26D+00  1.82D+00
                    CP:  1.62D+00  1.49D+00
 E= -5155.01946669967     Delta-E=       -0.000000000093 Rises=F Damp=F
 DIIS: error= 2.75D-07 at cycle  28 NSaved=  20.
 NSaved=20 IEnMin=20 EnMin= -5155.01946669967     IErMin=20 ErrMin= 2.75D-07
 ErrMax= 2.75D-07  0.00D+00 EMaxC= 1.00D-01 BMatC= 1.63D-10 BMatP= 6.14D-10
 IDIUse=1 WtCom= 1.00D+00 WtEn= 0.00D+00
 Coeff-Com:  0.377D-05 0.342D-05-0.245D-04 0.250D-04-0.133D-03 0.945D-04
 Coeff-Com:  0.367D-03 0.410D-03 0.187D-03-0.377D-02-0.287D-02-0.250D-02
 Coeff-Com:  0.181D-01 0.473D-01 0.169D-01-0.104D+00-0.262D+00-0.782D-01
 Coeff-Com:  0.394D+00 0.976D+00
 Coeff:      0.377D-05 0.342D-05-0.245D-04 0.250D-04-0.133D-03 0.945D-04
 Coeff:      0.367D-03 0.410D-03 0.187D-03-0.377D-02-0.287D-02-0.250D-02
 Coeff:      0.181D-01 0.473D-01 0.169D-01-0.104D+00-0.262D+00-0.782D-01
 Coeff:      0.394D+00 0.976D+00
 Gap=     0.180 Goal=   None    Shift=    0.000
 Gap=     0.017 Goal=   None    Shift=    0.000
 RMSDP=4.42D-08 MaxDP=5.09D-06 DE=-9.28D-11 OVMax= 6.13D-05

 Cycle  29  Pass 1  IDiag  1:
 RMSU=  1.37D-08    CP:  1.00D+00  3.00D+00  2.98D+00  2.34D+00  2.09D+00
                    CP:  1.77D+00  2.33D+00  2.36D+00
 E= -5155.01946669977     Delta-E=       -0.000000000106 Rises=F Damp=F
 DIIS: error= 2.14D-07 at cycle  29 NSaved=  20.
 NSaved=20 IEnMin=20 EnMin= -5155.01946669977     IErMin=20 ErrMin= 2.14D-07
 ErrMax= 2.14D-07  0.00D+00 EMaxC= 1.00D-01 BMatC= 7.55D-11 BMatP= 1.63D-10
 IDIUse=1 WtCom= 1.00D+00 WtEn= 0.00D+00
 Coeff-Com:  0.984D-06-0.528D-05 0.351D-05-0.870D-05 0.773D-04 0.282D-03
 Coeff-Com:  0.789D-03 0.921D-03-0.307D-03-0.413D-02-0.770D-02 0.529D-02
 Coeff-Com:  0.347D-01 0.265D-01-0.429D-01-0.171D+00-0.217D+00 0.805D-02
 Coeff-Com:  0.470D+00 0.896D+00
 Coeff:      0.984D-06-0.528D-05 0.351D-05-0.870D-05 0.773D-04 0.282D-03
 Coeff:      0.789D-03 0.921D-03-0.307D-03-0.413D-02-0.770D-02 0.529D-02
 Coeff:      0.347D-01 0.265D-01-0.429D-01-0.171D+00-0.217D+00 0.805D-02
 Coeff:      0.470D+00 0.896D+00
 Gap=     0.180 Goal=   None    Shift=    0.000
 Gap=     0.017 Goal=   None    Shift=    0.000
 RMSDP=3.14D-08 MaxDP=4.38D-06 DE=-1.06D-10 OVMax= 4.38D-05

 Cycle  30  Pass 1  IDiag  1:
 RMSU=  8.88D-09    CP:  1.00D+00  3.00D+00  3.00D+00  2.37D+00  2.30D+00
                    CP:  1.90D+00  3.00D+00  3.00D+00  1.70D+00
 E= -5155.01946669996     Delta-E=       -0.000000000180 Rises=F Damp=F
 DIIS: error= 9.43D-08 at cycle  30 NSaved=  20.
 NSaved=20 IEnMin=20 EnMin= -5155.01946669996     IErMin=20 ErrMin= 9.43D-08
 ErrMax= 9.43D-08  0.00D+00 EMaxC= 1.00D-01 BMatC= 2.82D-11 BMatP= 7.55D-11
 IDIUse=1 WtCom= 1.00D+00 WtEn= 0.00D+00
 Coeff-Com:  0.413D-05-0.155D-05-0.495D-05 0.130D-05 0.117D-03 0.376D-03
 Coeff-Com:  0.234D-03 0.223D-03-0.206D-02-0.358D-02 0.144D-02 0.159D-01
 Coeff-Com:  0.141D-01-0.134D-01-0.678D-01-0.139D+00-0.824D-01 0.941D-01
 Coeff-Com:  0.606D+00 0.576D+00
 Coeff:      0.413D-05-0.155D-05-0.495D-05 0.130D-05 0.117D-03 0.376D-03
 Coeff:      0.234D-03 0.223D-03-0.206D-02-0.358D-02 0.144D-02 0.159D-01
 Coeff:      0.141D-01-0.134D-01-0.678D-01-0.139D+00-0.824D-01 0.941D-01
 Coeff:      0.606D+00 0.576D+00
 Gap=     0.180 Goal=   None    Shift=    0.000
 Gap=     0.017 Goal=   None    Shift=    0.000
 RMSDP=1.43D-08 MaxDP=2.01D-06 DE=-1.80D-10 OVMax= 1.98D-05

 Cycle  31  Pass 1  IDiag  1:
 RMSU=  8.61D-09    CP:  1.00D+00  3.00D+00  3.00D+00  2.39D+00  2.39D+00
                    CP:  1.93D+00  3.00D+00  3.00D+00  2.13D+00  1.76D+00
 E= -5155.01946669983     Delta-E=        0.000000000129 Rises=F Damp=F
 DIIS: error= 3.56D-08 at cycle  31 NSaved=  20.
 NSaved=20 IEnMin=19 EnMin= -5155.01946669996     IErMin=20 ErrMin= 3.56D-08
 ErrMax= 3.56D-08  0.00D+00 EMaxC= 1.00D-01 BMatC= 5.26D-12 BMatP= 2.82D-11
 IDIUse=1 WtCom= 1.00D+00 WtEn= 0.00D+00
 Coeff-Com: -0.362D-05 0.388D-05-0.118D-04-0.283D-04-0.121D-04 0.175D-04
 Coeff-Com:  0.259D-03-0.215D-03-0.682D-03-0.412D-04 0.480D-03-0.900D-03
 Coeff-Com:  0.545D-03 0.171D-01 0.297D-01-0.188D-01-0.134D+00-0.133D+00
 Coeff-Com:  0.253D+00 0.987D+00
 Coeff:     -0.362D-05 0.388D-05-0.118D-04-0.283D-04-0.121D-04 0.175D-04
 Coeff:      0.259D-03-0.215D-03-0.682D-03-0.412D-04 0.480D-03-0.900D-03
 Coeff:      0.545D-03 0.171D-01 0.297D-01-0.188D-01-0.134D+00-0.133D+00
 Coeff:      0.253D+00 0.987D+00
 Gap=     0.180 Goal=   None    Shift=    0.000
 Gap=     0.017 Goal=   None    Shift=    0.000
 RMSDP=1.32D-08 MaxDP=1.89D-06 DE= 1.29D-10 OVMax= 1.84D-05

 Cycle  32  Pass 1  IDiag  1:
 RMSU=  3.37D-09    CP:  1.00D+00  3.00D+00  3.00D+00  2.40D+00  2.45D+00
                    CP:  1.95D+00  3.00D+00  3.00D+00  2.57D+00  2.54D+00
                    CP:  1.88D+00
 E= -5155.01946669981     Delta-E=        0.000000000013 Rises=F Damp=F
 DIIS: error= 2.49D-08 at cycle  32 NSaved=  20.
 NSaved=20 IEnMin=18 EnMin= -5155.01946669996     IErMin=20 ErrMin= 2.49D-08
 ErrMax= 2.49D-08  0.00D+00 EMaxC= 1.00D-01 BMatC= 2.41D-12 BMatP= 5.26D-12
 IDIUse=1 WtCom= 1.00D+00 WtEn= 0.00D+00
 Coeff-Com:  0.995D-05-0.107D-04-0.732D-04-0.184D-03-0.176D-03 0.808D-04
 Coeff-Com:  0.930D-03 0.165D-02-0.108D-02-0.959D-02-0.894D-02 0.101D-01
 Coeff-Com:  0.551D-01 0.864D-01 0.940D-02-0.161D+00-0.345D+00-0.847D-01
 Coeff-Com:  0.611D+00 0.836D+00
 Coeff:      0.995D-05-0.107D-04-0.732D-04-0.184D-03-0.176D-03 0.808D-04
 Coeff:      0.930D-03 0.165D-02-0.108D-02-0.959D-02-0.894D-02 0.101D-01
 Coeff:      0.551D-01 0.864D-01 0.940D-02-0.161D+00-0.345D+00-0.847D-01
 Coeff:      0.611D+00 0.836D+00
 Gap=     0.180 Goal=   None    Shift=    0.000
 Gap=     0.017 Goal=   None    Shift=    0.000
 RMSDP=1.07D-08 MaxDP=1.51D-06 DE= 1.27D-11 OVMax= 1.49D-05

 Cycle  33  Pass 1  IDiag  1:
 RMSU=  2.56D-09    CP:  1.00D+00  3.00D+00  3.00D+00  2.40D+00  2.50D+00
                    CP:  1.97D+00  3.00D+00  3.00D+00  2.92D+00  3.00D+00
                    CP:  2.48D+00  2.01D+00
 E= -5155.01946669992     Delta-E=       -0.000000000104 Rises=F Damp=F
 DIIS: error= 4.15D-08 at cycle  33 NSaved=  20.
 NSaved=20 IEnMin=17 EnMin= -5155.01946669996     IErMin=19 ErrMin= 2.49D-08
 ErrMax= 4.15D-08  0.00D+00 EMaxC= 1.00D-01 BMatC= 3.54D-12 BMatP= 2.41D-12
 IDIUse=1 WtCom= 1.00D+00 WtEn= 0.00D+00
 Coeff-Com: -0.169D-04-0.761D-04-0.126D-03 0.842D-04-0.375D-05 0.570D-03
 Coeff-Com:  0.306D-03-0.604D-03-0.339D-02-0.292D-02 0.268D-02 0.166D-01
 Coeff-Com:  0.424D-01 0.238D-01-0.261D-01-0.180D+00-0.184D+00 0.226D-01
 Coeff-Com:  0.546D+00 0.743D+00
 Coeff:     -0.169D-04-0.761D-04-0.126D-03 0.842D-04-0.375D-05 0.570D-03
 Coeff:      0.306D-03-0.604D-03-0.339D-02-0.292D-02 0.268D-02 0.166D-01
 Coeff:      0.424D-01 0.238D-01-0.261D-01-0.180D+00-0.184D+00 0.226D-01
 Coeff:      0.546D+00 0.743D+00
 Gap=     0.180 Goal=   None    Shift=    0.000
 Gap=     0.017 Goal=   None    Shift=    0.000
 RMSDP=6.03D-09 MaxDP=8.10D-07 DE=-1.04D-10 OVMax= 8.40D-06

 SCF Done:  E(UM06L) =  -5155.01946670     A.U. after   33 cycles
            NFock= 33  Conv=0.60D-08     -V/T= 2.0017
 <Sx>= 0.0000 <Sy>= 0.0000 <Sz>= 7.0000 <S**2>=56.0658 S= 7.0044
 <L.S>=  0.00000000000    
 KE= 5.146518513832D+03 PE=-2.107097500704D+04 EE= 6.353831941046D+03
 Annihilation of the first spin contaminant:
 S**2 before annihilation    56.0658,   after    56.0003
 Leave Link  502 at Wed Feb  1 12:30:35 2023, MaxMem= 14763950080 cpu:           11259.0 elap:            5672.9
 (Enter /software/commercial/gaussian/g16/AVX2/g16/l508.exe)
 QCSCF skips out because SCF is already converged.
 Leave Link  508 at Wed Feb  1 12:30:35 2023, MaxMem= 14763950080 cpu:               0.0 elap:               0.0
 (Enter /software/commercial/gaussian/g16/AVX2/g16/l601.exe)
 Copying SCF densities to generalized density rwf, IOpCl= 1 IROHF=0.

 **********************************************************************

            Population analysis using the SCF Density.

 **********************************************************************

 Alpha  occ. eigenvalues -- -255.61385-255.61166-255.61161 -30.05971 -30.05626
 Alpha  occ. eigenvalues --  -30.05617 -25.83635 -25.83310 -25.83308 -25.82836
 Alpha  occ. eigenvalues --  -25.82730 -25.82558 -25.82529 -25.82295 -25.82289
 Alpha  occ. eigenvalues --  -19.01897 -19.01888 -18.97425 -18.97406 -18.97399
 Alpha  occ. eigenvalues --  -18.97393 -18.97388 -18.97386 -18.97383 -18.97368
 Alpha  occ. eigenvalues --  -18.97307 -18.97296 -18.97261 -18.97242 -18.95315
 Alpha  occ. eigenvalues --  -10.17218 -10.17202 -10.17181 -10.17162 -10.17063
 Alpha  occ. eigenvalues --  -10.17053  -3.62866  -3.62622  -3.62614  -2.38075
 Alpha  occ. eigenvalues --   -2.37898  -2.37882  -2.36436  -2.36314  -2.36265
 Alpha  occ. eigenvalues --   -2.36189  -2.35780  -2.35760  -1.06167  -1.05903
 Alpha  occ. eigenvalues --   -1.05892  -1.05622  -1.05556  -1.05530  -1.04054
 Alpha  occ. eigenvalues --   -1.04026  -0.98305  -0.98266  -0.97994  -0.97903
 Alpha  occ. eigenvalues --   -0.97868  -0.97783  -0.92781  -0.58866  -0.57965
 Alpha  occ. eigenvalues --   -0.57743  -0.57517  -0.57361  -0.57289  -0.54078
 Alpha  occ. eigenvalues --   -0.54035  -0.48713  -0.48638  -0.47769  -0.47262
 Alpha  occ. eigenvalues --   -0.47233  -0.47045  -0.46885  -0.46814  -0.46426
 Alpha  occ. eigenvalues --   -0.46109  -0.45815  -0.45708  -0.44189  -0.43715
 Alpha  occ. eigenvalues --   -0.43110  -0.42041  -0.41940  -0.41282  -0.41222
 Alpha  occ. eigenvalues --   -0.40250  -0.40025  -0.39875  -0.38327  -0.37636
 Alpha  occ. eigenvalues --   -0.36832  -0.36788  -0.36449  -0.36318  -0.36280
 Alpha  occ. eigenvalues --   -0.35711  -0.35501  -0.35451  -0.35180  -0.33864
 Alpha  occ. eigenvalues --   -0.33323  -0.33037  -0.32290  -0.31846  -0.31290
 Alpha  occ. eigenvalues --   -0.29070  -0.28729  -0.28493  -0.28450  -0.28207
 Alpha  occ. eigenvalues --   -0.28176  -0.28051  -0.27915  -0.27396  -0.27243
 Alpha  occ. eigenvalues --   -0.26985  -0.26918  -0.26480  -0.24727  -0.23884
 Alpha  occ. eigenvalues --   -0.22132  -0.21963  -0.21580  -0.21361
 Alpha virt. eigenvalues --   -0.03320  -0.02702  -0.02659  -0.02353  -0.01446
 Alpha virt. eigenvalues --   -0.01276   0.01982   0.02686   0.03743   0.07531
 Alpha virt. eigenvalues --    0.07834   0.08228   0.08280   0.08904   0.09270
 Alpha virt. eigenvalues --    0.09488   0.10038   0.10278   0.10940   0.12851
 Alpha virt. eigenvalues --    0.13649   0.14621   0.14771   0.15609   0.16808
 Alpha virt. eigenvalues --    0.17091   0.18164   0.18376   0.18787   0.19259
 Alpha virt. eigenvalues --    0.21424   0.21894   0.22152   0.23190   0.23384
 Alpha virt. eigenvalues --    0.23784   0.23872   0.24393   0.25777   0.25929
 Alpha virt. eigenvalues --    0.26774   0.27058   0.27673   0.27798   0.28210
 Alpha virt. eigenvalues --    0.28967   0.29260   0.29939   0.29988   0.30527
 Alpha virt. eigenvalues --    0.31122   0.31142   0.31784   0.32049   0.32581
 Alpha virt. eigenvalues --    0.33186   0.33523   0.35164   0.35762   0.35827
[...]
 Coeff-Com: -0.313D-03-0.256D-01-0.207D-01 0.214D+00 0.833D+00
 Coeff:     -0.313D-03-0.256D-01-0.207D-01 0.214D+00 0.833D+00
 Gap=     0.300 Goal=   None    Shift=    0.000
 Gap=     0.300 Goal=   None    Shift=    0.000
 RMSDP=2.19D-08 MaxDP=2.85D-07 DE=-4.35D-12 OVMax= 3.30D-07

 Cycle  11  Pass 1  IDiag  1:
 E= -76.4431295328500     Delta-E=       -0.000000000001 Rises=F Damp=F
 DIIS: error= 1.30D-08 at cycle   6 NSaved=   6.
 NSaved= 6 IEnMin= 6 EnMin= -76.4431295328500     IErMin= 6 ErrMin= 1.30D-08
 ErrMax= 1.30D-08  0.00D+00 EMaxC= 1.00D-01 BMatC= 2.96D-14 BMatP= 2.68D-12
 IDIUse=1 WtCom= 1.00D+00 WtEn= 0.00D+00
 Coeff-Com:  0.147D-03-0.480D-02-0.479D-02-0.437D-02 0.623D-01 0.952D+00
 Coeff:      0.147D-03-0.480D-02-0.479D-02-0.437D-02 0.623D-01 0.952D+00
 Gap=     0.300 Goal=   None    Shift=    0.000
 Gap=     0.300 Goal=   None    Shift=    0.000
 RMSDP=3.07D-09 MaxDP=2.99D-08 DE=-5.40D-13 OVMax= 2.94D-08

 SCF Done:  E(UM06L) =  -76.4431295329     A.U. after   11 cycles
            NFock= 11  Conv=0.31D-08     -V/T= 2.0033
 <Sx>= 0.0000 <Sy>= 0.0000 <Sz>= 0.0000 <S**2>=-0.0000 S=-0.0000
 <L.S>=  0.00000000000    
 KE= 7.618814490634D+01 PE=-1.991197684379D+02 EE= 3.740262086170D+01
 Annihilation of the first spin contaminant:
 S**2 before annihilation    -0.0000,   after     0.0000
 Leave Link  502 at Wed Feb  1 16:17:30 2023, MaxMem= 14763950080 cpu:               4.0 elap:               2.2
 (Enter /software/commercial/gaussian/g16/AVX2/g16/l508.exe)
 QCSCF skips out because SCF is already converged.
 Leave Link  508 at Wed Feb  1 16:17:31 2023, MaxMem= 14763950080 cpu:               0.0 elap:               0.0
 (Enter /software/commercial/gaussian/g16/AVX2/g16/l601.exe)
 Copying SCF densities to generalized density rwf, IOpCl= 1 IROHF=0.

 **********************************************************************

            Population analysis using the SCF Density.

 **********************************************************************

 Alpha  occ. eigenvalues --  -18.96288  -0.98016  -0.48790  -0.34788  -0.26778
 Alpha virt. eigenvalues --    0.03202   0.09705   0.35036   0.39489   0.43660
 Alpha virt. eigenvalues --    0.44026   0.56402   0.57235   1.16274   1.19013
 Alpha virt. eigenvalues --    1.30062   1.52937   1.64830   1.76734   2.01431
 Alpha virt. eigenvalues --    2.09163   2.12695   2.32274   2.41701   2.62604
 Alpha virt. eigenvalues --    2.64900   2.69079   2.84233   3.73244   4.00950
 Alpha virt. eigenvalues --    5.23081   5.32862   5.50618   5.52206   5.57832
 Alpha virt. eigenvalues --    6.12571   6.32201   6.42768   6.48882   6.54922
 Alpha virt. eigenvalues --    7.04785   7.14180  43.44195
  Beta  occ. eigenvalues --  -18.96288  -0.98016  -0.48790  -0.34788  -0.26778
  Beta virt. eigenvalues --    0.03202   0.09705   0.35036   0.39489   0.43660
  Beta virt. eigenvalues --    0.44026   0.56402   0.57235   1.16274   1.19013
  Beta virt. eigenvalues --    1.30062   1.52937   1.64830   1.76734   2.01431
  Beta virt. eigenvalues --    2.09163   2.12695   2.32274   2.41701   2.62604
  Beta virt. eigenvalues --    2.64900   2.69079   2.84233   3.73244   4.00950
  Beta virt. eigenvalues --    5.23081   5.32862   5.50618   5.52206   5.57832
  Beta virt. eigenvalues --    6.12571   6.32201   6.42768   6.48882   6.54922
  Beta virt. eigenvalues --    7.04785   7.14180  43.44195
          Condensed to atoms (all electrons):
              32         33         34
    32  O    8.059035   0.288731   0.288759
    33  H    0.288731   0.410136  -0.017138
    34  H    0.288759  -0.017138   0.410125
          Atomic-Atomic Spin Densities.
              32         33         34
    32  O    0.000000   0.000000   0.000000
    33  H    0.000000   0.000000   0.000000
    34  H    0.000000   0.000000   0.000000
 Mulliken charges and spin densities:
               1          2
     1  O    0.000000   0.000000
     2  O    0.000000   0.000000
     3  C    0.000000   0.000000
     4  H    0.000000   0.000000
     5  O    0.000000   0.000000
     6  O    0.000000   0.000000
     7  C    0.000000   0.000000
     8  H    0.000000   0.000000
     9  O    0.000000   0.000000
    10  O    0.000000   0.000000
    11  O    0.000000   0.000000
    12  C    0.000000   0.000000
    13  H    0.000000   0.000000
    14  O    0.000000   0.000000
    15  O    0.000000   0.000000
    16  C    0.000000   0.000000
    17  H    0.000000   0.000000
    18  Fe   0.000000   0.000000
    19  O    0.000000   0.000000
    20  Fe   0.000000   0.000000
    21  O    0.000000   0.000000
    22  O    0.000000   0.000000
    23  Fe   0.000000   0.000000
    24  O    0.000000   0.000000
    25  C    0.000000   0.000000
    26  H    0.000000   0.000000
    27  C    0.000000   0.000000
    28  H    0.000000   0.000000
    29  O    0.000000   0.000000
    30  H    0.000000   0.000000
    31  H    0.000000   0.000000
    32  O   -0.636525   0.000000
    33  H    0.318271   0.000000
    34  H    0.318254   0.000000
 Sum of Mulliken charges =  -0.00000   0.00000
 Mulliken charges and spin densities with hydrogens summed into heavy atoms:
               1          2
     1  O    0.000000   0.000000
     2  O    0.000000   0.000000
     3  C    0.000000   0.000000
     5  O    0.000000   0.000000
     6  O    0.000000   0.000000
     7  C    0.000000   0.000000
     9  O    0.000000   0.000000
    10  O    0.000000   0.000000
    11  O    0.000000   0.000000
    12  C    0.000000   0.000000
    14  O    0.000000   0.000000
    15  O    0.000000   0.000000
    16  C    0.000000   0.000000
    18  Fe   0.000000   0.000000
    19  O    0.000000   0.000000
    20  Fe   0.000000   0.000000
    21  O    0.000000   0.000000
    22  O    0.000000   0.000000
    23  Fe   0.000000   0.000000
    24  O    0.000000   0.000000
    25  C    0.000000   0.000000
    27  C    0.000000   0.000000
    29  O    0.000000   0.000000
    32  O   -0.000000   0.000000
         Mulliken charges and spin densities condensed to fragments:
      1      0.000000      0.000000
      2      0.000000      0.000000
      3     -0.000000      0.000000
 Electronic spatial extent (au):  <R**2>=            736.2214
 Charge=             -0.0000 electrons
 Dipole moment (field-independent basis, Debye):
    X=              0.3405    Y=             -0.1795    Z=              1.9929  Tot=              2.0298
 Quadrupole moment (field-independent basis, Debye-Ang):
   XX=             -3.9624   YY=             -4.3014   ZZ=             -6.7901
   XY=             -0.0490   XZ=              8.3064   YZ=             -3.7766
 Traceless Quadrupole moment (field-independent basis, Debye-Ang):
   XX=              1.0556   YY=              0.7165   ZZ=             -1.7721
   XY=             -0.0490   XZ=              8.3064   YZ=             -3.7766
 Octapole moment (field-independent basis, Debye-Ang**2):
  XXX=            -65.3135  YYY=             25.4266  ZZZ=              3.9809  XYY=            -21.1519
  XXY=             15.1555  XXZ=             36.1050  XZZ=            -27.6908  YZZ=             12.5396
  YYZ=              8.9292  XYZ=            -15.5277
 Hexadecapole moment (field-independent basis, Debye-Ang**3):
 XXXX=           -584.1800 YYYY=           -101.6205 ZZZZ=             -8.4010 XXXY=            175.3000
 XXXZ=            162.4395 YYYX=            114.8117 YYYZ=            -23.4543 ZZZX=             16.2012
 ZZZY=             -7.3350 XXYY=           -126.4739 XXZZ=           -115.3766 YYZZ=            -25.4909
 XXYZ=            -66.5326 YYXZ=             36.2759 ZZXY=             51.2241
 N-N= 9.085873137050D+00 E-N=-1.991197685609D+02  KE= 7.618814490634D+01
 There are a total of       66422 grid points.
 ElSum from          density=        9.9999999938
 ElSum from atomic densities=        9.9999999950
 Hirshfeld populations at iteration   1 (CA, CB, DipXYZ):
               1          2          3          4          5
     1  O    0.000000   0.000000   0.000000   0.000000   0.000000
     2  O    0.000000   0.000000   0.000000   0.000000   0.000000
     3  C    0.000000   0.000000   0.000000   0.000000   0.000000
     4  H    0.000000   0.000000   0.000000   0.000000   0.000000
     5  O    0.000000   0.000000   0.000000   0.000000   0.000000
     6  O    0.000000   0.000000   0.000000   0.000000   0.000000
     7  C    0.000000   0.000000   0.000000   0.000000   0.000000
     8  H    0.000000   0.000000   0.000000   0.000000   0.000000
     9  O    0.000000   0.000000   0.000000   0.000000   0.000000
    10  O    0.000000   0.000000   0.000000   0.000000   0.000000
    11  O    0.000000   0.000000   0.000000   0.000000   0.000000
    12  C    0.000000   0.000000   0.000000   0.000000   0.000000
    13  H    0.000000   0.000000   0.000000   0.000000   0.000000
    14  O    0.000000   0.000000   0.000000   0.000000   0.000000
    15  O    0.000000   0.000000   0.000000   0.000000   0.000000
    16  C    0.000000   0.000000   0.000000   0.000000   0.000000
    17  H    0.000000   0.000000   0.000000   0.000000   0.000000
    18  Fe   0.000000   0.000000   0.000000   0.000000   0.000000
    19  O    0.000000   0.000000   0.000000   0.000000   0.000000
    20  Fe   0.000000   0.000000   0.000000   0.000000   0.000000
    21  O    0.000000   0.000000   0.000000   0.000000   0.000000
    22  O    0.000000   0.000000   0.000000   0.000000   0.000000
    23  Fe   0.000000   0.000000   0.000000   0.000000   0.000000
    24  O    0.000000   0.000000   0.000000   0.000000   0.000000
    25  C    0.000000   0.000000   0.000000   0.000000   0.000000
    26  H    0.000000   0.000000   0.000000   0.000000   0.000000
    27  C    0.000000   0.000000   0.000000   0.000000   0.000000
    28  H    0.000000   0.000000   0.000000   0.000000   0.000000
    29  O    0.000000   0.000000   0.000000   0.000000   0.000000
    30  H    0.000000   0.000000   0.000000   0.000000   0.000000
    31  H    0.000000   0.000000   0.000000   0.000000   0.000000
    32  O    4.154549   4.154549   0.028567  -0.015095   0.167287
    33  H    0.422719   0.422719   0.108544   0.147650   0.137990
    34  H    0.422732   0.422732  -0.061370  -0.172540   0.138170
       Tot   5.000000   5.000000   0.075741  -0.039985   0.443448

 Dip from Atomic Chgs              0.058224  -0.030622   0.340630
         Total Dipole              0.133965  -0.070606   0.784078

 Hirshfeld charges, spin densities, dipoles, and CM5 charges using IRadAn=      5:
              Q-H        S-H        Dx         Dy         Dz        Q-CM5   
     1  O    0.000000   0.000000   0.000000   0.000000   0.000000   0.000000
     2  O    0.000000   0.000000   0.000000   0.000000   0.000000   0.000000
     3  C    0.000000   0.000000   0.000000   0.000000   0.000000   0.000000
     4  H    0.000000   0.000000   0.000000   0.000000   0.000000   0.000000
     5  O    0.000000   0.000000   0.000000   0.000000   0.000000   0.000000
     6  O    0.000000   0.000000   0.000000   0.000000   0.000000   0.000000
     7  C    0.000000   0.000000   0.000000   0.000000   0.000000   0.000000
     8  H    0.000000   0.000000   0.000000   0.000000   0.000000   0.000000
     9  O    0.000000   0.000000   0.000000   0.000000   0.000000   0.000000
    10  O    0.000000   0.000000   0.000000   0.000000   0.000000   0.000000
    11  O    0.000000   0.000000   0.000000   0.000000   0.000000   0.000000
    12  C    0.000000   0.000000   0.000000   0.000000   0.000000   0.000000
    13  H    0.000000   0.000000   0.000000   0.000000   0.000000   0.000000
    14  O    0.000000   0.000000   0.000000   0.000000   0.000000   0.000000
    15  O    0.000000   0.000000   0.000000   0.000000   0.000000   0.000000
    16  C    0.000000   0.000000   0.000000   0.000000   0.000000   0.000000
    17  H    0.000000   0.000000   0.000000   0.000000   0.000000   0.000000
    18  Fe   0.000000   0.000000   0.000000   0.000000   0.000000   0.000000
    19  O    0.000000   0.000000   0.000000   0.000000   0.000000   0.000000
    20  Fe   0.000000   0.000000   0.000000   0.000000   0.000000   0.000000
    21  O    0.000000   0.000000   0.000000   0.000000   0.000000   0.000000
    22  O    0.000000   0.000000   0.000000   0.000000   0.000000   0.000000
    23  Fe   0.000000   0.000000   0.000000   0.000000   0.000000   0.000000
    24  O    0.000000   0.000000   0.000000   0.000000   0.000000   0.000000
    25  C    0.000000   0.000000   0.000000   0.000000   0.000000   0.000000
    26  H    0.000000   0.000000   0.000000   0.000000   0.000000   0.000000
    27  C    0.000000   0.000000   0.000000   0.000000   0.000000   0.000000
    28  H    0.000000   0.000000   0.000000   0.000000   0.000000   0.000000
    29  O    0.000000   0.000000   0.000000   0.000000   0.000000   0.000000
    30  H    0.000000   0.000000   0.000000   0.000000   0.000000   0.000000
    31  H    0.000000   0.000000   0.000000   0.000000   0.000000   0.000000
    32  O   -0.309099   0.000000   0.028567  -0.015095   0.167287  -0.636158
    33  H    0.154563   0.000000   0.108544   0.147650   0.137990   0.318062
    34  H    0.154536   0.000000  -0.061370  -0.172540   0.138170   0.318096
       Tot   0.000000   0.000000   0.075741  -0.039985   0.443448   0.000000
 Hirshfeld charges and spin densities with hydrogens summed into heavy atoms:
              Q-H        S-H       Q-CM5   
     1  O    0.000000   0.000000   0.000000
     2  O    0.000000   0.000000   0.000000
     3  C    0.000000   0.000000   0.000000
     5  O    0.000000   0.000000   0.000000
     6  O    0.000000   0.000000   0.000000
     7  C    0.000000   0.000000   0.000000
     9  O    0.000000   0.000000   0.000000
    10  O    0.000000   0.000000   0.000000
    11  O    0.000000   0.000000   0.000000
    12  C    0.000000   0.000000   0.000000
    14  O    0.000000   0.000000   0.000000
    15  O    0.000000   0.000000   0.000000
    16  C    0.000000   0.000000   0.000000
    18  Fe   0.000000   0.000000   0.000000
    19  O    0.000000   0.000000   0.000000
    20  Fe   0.000000   0.000000   0.000000
    21  O    0.000000   0.000000   0.000000
    22  O    0.000000   0.000000   0.000000
    23  Fe   0.000000   0.000000   0.000000
    24  O    0.000000   0.000000   0.000000
    25  C    0.000000   0.000000   0.000000
    27  C    0.000000   0.000000   0.000000
    29  O    0.000000   0.000000   0.000000
    32  O    0.000000   0.000000   0.000000
         Hirshfeld charges and spin densities condensed to fragments:
      1      0.000000      0.000000
      2      0.000000      0.000000
      3      0.000000      0.000000
 
 EQQ=  0.00000000000     EQD=  0.00000000000     EDD= 0.727116086984E-02
 EQQ+QD+DD= 0.727116086984E-02
 
                          Isotropic Fermi Contact Couplings
        Atom                 a.u.       MegaHertz       Gauss      10(-4) cm-1
    32  O(17)              0.00000      -0.00000      -0.00000      -0.00000
    33  H(1)               0.00000       0.00000       0.00000       0.00000
    34  H(1)               0.00000       0.00000       0.00000       0.00000
 --------------------------------------------------------
       Center         ----  Spin Dipole Couplings  ----
                      3XX-RR        3YY-RR        3ZZ-RR
 --------------------------------------------------------
    32   Atom        0.000000      0.000000      0.000000
    33   Atom        0.000000      0.000000      0.000000
    34   Atom        0.000000      0.000000      0.000000
 --------------------------------------------------------
                        XY            XZ            YZ
 --------------------------------------------------------
    32   Atom        0.000000      0.000000      0.000000
    33   Atom        0.000000      0.000000      0.000000
    34   Atom        0.000000      0.000000      0.000000
 --------------------------------------------------------


 ---------------------------------------------------------------------------------
              Anisotropic Spin Dipole Couplings in Principal Axis System
 ---------------------------------------------------------------------------------

       Atom             a.u.   MegaHertz   Gauss  10(-4) cm-1        Axes

              Baa     0.0000    -0.000    -0.000    -0.000  1.0000  0.0000  0.0000
    32 O(17)  Bbb     0.0000    -0.000    -0.000    -0.000 -0.0000  1.0000  0.0000
              Bcc     0.0000    -0.000    -0.000    -0.000  0.0000  0.0000  1.0000
 
              Baa     0.0000     0.000     0.000     0.000  1.0000  0.0000  0.0000
    33 H(1)   Bbb     0.0000     0.000     0.000     0.000 -0.0000  1.0000  0.0000
              Bcc     0.0000     0.000     0.000     0.000  0.0000  0.0000  1.0000
 
              Baa     0.0000     0.000     0.000     0.000  1.0000  0.0000  0.0000
    34 H(1)   Bbb     0.0000     0.000     0.000     0.000 -0.0000  1.0000  0.0000
              Bcc     0.0000     0.000     0.000     0.000  0.0000  0.0000  1.0000
 

 ---------------------------------------------------------------------------------

 No NMR shielding tensors so no spin-rotation constants.
 Leave Link  601 at Wed Feb  1 16:17:31 2023, MaxMem= 14763950080 cpu:               0.4 elap:               0.3
 (Enter /software/commercial/gaussian/g16/AVX2/g16/l122.exe)
 CPIOFr:  IOpCl= 1 IRwI=-1 IRwCP=  731 ICalc=  6 LCPTot=     1085398 Len1MO=     3596852 IndFrg=    26263362
 Restoring MOs from calculation   1 to rwf.
 CPIOFr:  IOpCl= 1 IRwI=-2 IRwCP=  731 ICalc=  0 LCPTot=     1085398 Len1MO=     3596852 IndFrg=     4682250
 Counterpoise corrected energy =   -5155.014935101867
                   BSSE energy =       0.004531598050
              sum of fragments =   -5154.947337144330
           complexation energy =     -45.26 kcal/mole (raw)
           complexation energy =     -42.42 kcal/mole (corrected)
 Leave Link  122 at Wed Feb  1 16:17:32 2023, MaxMem= 14763950080 cpu:               0.1 elap:               0.4
 (Enter /software/commercial/gaussian/g16/AVX2/g16/l9999.exe)
 Unable to Open any file for archive entry.
 1\1\GINC-NODE0307\SP\UM06L\Gen\C6H10Fe3O15(15)\SVICCHI\01-Feb-2023\0\\
 #p gen um06l int=grid=ultrafine scf=(xqc,intrep,maxconventionalcycle=1
 50) pop=(hirshfeld) nosymm counterpoise=3\\FeFeFe-A-2xH2O\\0,15\O,0,1.
 438376,-2.153135,-1.714415\O,0,-0.78791,-2.248215,-1.379003\C,0,0.2832
 39,-2.579499,-1.940826\H,0,0.193458,-3.33944,-2.736042\O,0,1.967738,2.
 210024,1.386148\O,0,3.200333,0.359363,1.026705\C,0,2.951777,1.461566,1
 .572682\H,0,3.693582,1.815721,2.310605\O,0,-2.269227,0.138284,-1.17292
 5\O,0,2.780687,0.454344,-1.825857\O,0,1.651777,2.372109,-1.474095\C,0,
 2.472677,1.639545,-2.07808\H,0,2.987971,2.098103,-2.940943\O,0,-0.4460
 29,-2.303451,1.424282\O,0,1.786995,-2.256238,1.130629\C,0,0.727521,-2.
 67247,1.656397\H,0,0.839572,-3.460379,2.422306\Fe,0,-1.069467,-0.89549
 6,0.099433\O,0,-1.988686,0.046986,1.635664\Fe,0,0.371825,2.019492,0.14
 5631\O,0,-0.940384,2.040546,1.701308\O,0,-1.303196,2.172945,-1.140902\
 Fe,0,2.145922,-0.804606,-0.363559\O,0,0.490938,0.113585,-0.043131\C,0,
 -1.77198,1.192802,2.097383\H,0,-2.390618,1.486751,2.962741\C,0,-2.1696
 ,1.34185,-1.502543\H,0,-2.940358,1.712927,-2.201286\O,0,0.173968,4.178
 308,-0.119801\H,0,0.852175,4.304909,-0.7994\H,0,-0.661858,4.183558,-0.
 609761\O,0,4.064964,-1.839901,-0.254394\H,0,4.523353,-1.216379,0.32842
 9\H,0,3.805872,-2.568391,0.329101\\Version=ES64L-G16RevC.02\HF=-76.443
 1295\S2=0.\S2-1=0.\S2A=0.\RMSD=3.071e-09\Dipole=0.7020671,0.4491922,-0
 .0601984\Quadrupole=1.1716592,3.0805181,-4.2521773,-4.4903779,5.256135
 2,-8.4911263\PG=C01 [X(C6H10Fe3O15)]\\@
 The archive entry for this job was punched.


 THE REASON MAN'S BEST FRIEND IS A DOG IS BECAUSE
 HE WAGS HIS TAIL INSTEAD OF HIS TONGUE.
 Job cpu time:       0 days 10 hours 37 minutes  4.3 seconds.
 Elapsed time:       0 days  5 hours 21 minutes 27.5 seconds.
 File lengths (MBytes):  RWF=    941 Int=      0 D2E=      0 Chk=    246 Scr=      1
 Normal termination of Gaussian 16 at Wed Feb  1 16:17:35 2023.
