 Entering Gaussian System, Link 0=g16
 Input=FeFeFe-A-2xH2O-opt.gjf
 Output=FeFeFe-A-2xH2O-opt.log
 AtFile(1): /zfs/curium/svicchi/00-MOF/01-Gaussian/zw-basis-set/def2-TZVP/H.gbs
            !----------------------------------------------------------------------
            ! Basis Set Exchange
            ! Version v0.9
            ! https://www.basissetexchange.org
            !----------------------------------------------------------------------
            !   Basis set: def2-TZVP
            ! Description: def2-TZVP
            !        Role: orbital
            !     Version: 1  (Data from Turbomole 7.3)
            !----------------------------------------------------------------------
            H     0
            S    3   1.00
                 34.0613410              0.60251978D-02
                  5.1235746              0.45021094D-01
                  1.1646626              0.20189726
            S    1   1.00
                  0.32723041             1.0000000
            S    1   1.00
                  0.10307241             1.0000000
            P    1   1.00
                  0.8000000              1.0000000
 AtFile(1): /zfs/curium/svicchi/00-MOF/01-Gaussian/zw-basis-set/def2-TZVP/O.gbs
            !----------------------------------------------------------------------
            ! Basis Set Exchange
            ! Version v0.9
            ! https://www.basissetexchange.org
            !----------------------------------------------------------------------
            !   Basis set: def2-TZVP
            ! Description: def2-TZVP
            !        Role: orbital
            !     Version: 1  (Data from Turbomole 7.3)
            !----------------------------------------------------------------------
            O     0
            S    6   1.00
              27032.3826310              0.21726302465D-03
               4052.3871392              0.16838662199D-02
                922.32722710             0.87395616265D-02
                261.24070989             0.35239968808D-01
                 85.354641351            0.11153519115
                 31.035035245            0.25588953961
            S    2   1.00
                 12.260860728            0.39768730901
                  4.9987076005           0.24627849430
            S    1   1.00
                  1.1703108158           1.0000000
            S    1   1.00
                  0.46474740994          1.0000000
            S    1   1.00
                  0.18504536357          1.0000000
            P    4   1.00
                 63.274954801            0.60685103418D-02
                 14.627049379            0.41912575824D-01
                  4.4501223456           0.16153841088
                  1.5275799647           0.35706951311
            P    1   1.00
                  0.52935117943           .44794207502
            P    1   1.00
                  0.17478421270           .24446069663
            D    1   1.00
                  2.31400000             1.0000000
            D    1   1.00
                  0.64500000             1.0000000
            F    1   1.00
                  1.42800000             1.0000000
 AtFile(1): /zfs/curium/svicchi/00-MOF/01-Gaussian/zw-basis-set/def2-TZVP/C.gbs
            !----------------------------------------------------------------------
            ! Basis Set Exchange
            ! Version v0.9
            ! https://www.basissetexchange.org
            !----------------------------------------------------------------------
            !   Basis set: def2-TZVP
            ! Description: def2-TZVP
            !        Role: orbital
            !     Version: 1  (Data from Turbomole 7.3)
            !----------------------------------------------------------------------
            C     0
            S    6   1.00
              13575.3496820              0.22245814352D-03
               2035.2333680              0.17232738252D-02
                463.22562359             0.89255715314D-02
                131.20019598             0.35727984502D-01
                 42.853015891            0.11076259931
                 15.584185766            0.24295627626
            S    2   1.00
                  6.2067138508           0.41440263448
                  2.5764896527           0.23744968655
            S    1   1.00
                  0.57696339419          1.0000000
            S    1   1.00
                  0.22972831358          1.0000000
            S    1   1.00
                  0.95164440028D-01      1.0000000
            P    4   1.00
                 34.697232244            0.53333657805D-02
                  7.9582622826           0.35864109092D-01
                  2.3780826883           0.14215873329
                  0.81433208183          0.34270471845
            P    1   1.00
                  0.28887547253           .46445822433
            P    1   1.00
                  0.10056823671           .24955789874
            D    1   1.00
                  1.09700000             1.0000000
            D    1   1.00
                  0.31800000             1.0000000
            F    1   1.00
                  0.76100000             1.0000000
 AtFile(1): /zfs/curium/svicchi/00-MOF/01-Gaussian/zw-basis-set/def2-TZVP/Fe.gbs
            !----------------------------------------------------------------------
            ! Basis Set Exchange
            ! Version v0.9
            ! https://www.basissetexchange.org
            !----------------------------------------------------------------------
            !   Basis set: def2-TZVP
            ! Description: def2-TZVP
            !        Role: orbital
            !     Version: 1  (Data from Turbomole 7.3)
            !----------------------------------------------------------------------
            Fe     0
            S    8   1.00
             300784.8463700              0.22806273096D-03
              45088.9705570              0.17681788761D-02
              10262.5163170              0.91927083490D-02
               2905.2897293              0.37355495807D-01
                946.11487137             0.12151108426
                339.87832894             0.28818881468
                131.94425588             0.41126612677
                 52.111494077            0.21518583573
            S    4   1.00
                329.48839267            -0.24745216477D-01
                101.92332739            -0.11683089050
                 16.240462745            0.55293621136
                  6.8840675801           0.53601640182
            S    2   1.00
                 10.470693782           -0.22912708577
                  1.7360039648           0.71159319984
            S    1   1.00
                  0.72577288979          1.0000000
            S    1   1.00
                  0.11595528203          1.0000000
            S    1   1.00
                  0.41968227746D-01      1.0000000
            P    6   1.00
               1585.3959970              0.23793960179D-02
                375.38006499             0.19253154755D-01
                120.31816501             0.90021836536D-01
                 44.788749031            0.25798172356
                 17.829278584            0.41492649744
                  7.2247153786           0.24207474784
            P    3   1.00
                 28.143219756           -0.29041755152D-01
                  3.8743241412           0.55312260343
                  1.5410752281           0.96771136842
            P    1   1.00
                  0.58285615250          1.0000000
            P    1   1.00
                  0.1349150              1.0000000
            D    4   1.00
                 61.996675034            0.11971972255D-01
                 17.873732552            0.73210135410D-01
                  6.2744782934           0.23103094314
                  2.3552337175           0.39910706494
            D    1   1.00
                  0.85432239901           .41391589765
            D    1   1.00
                  0.27869254413           .21909269782
            D    1   1.00
                  0.0910000              1.0000000
            F    1   1.00
                  1.5980000              1.0000000
 Initial command:
 /software/commercial/gaussian/g16/AVX2/g16/l1.exe "/scratch1/svicchi/G09-83844.pbs02/Gau-3468013.inp" -scrdir="/scratch1/svicchi/G09-83844.pbs02/"
 Entering Link 1 = /software/commercial/gaussian/g16/AVX2/g16/l1.exe PID=   3468014.
  
 Copyright (c) 1988-2021, Gaussian, Inc.  All Rights Reserved.
  
 This is part of the Gaussian(R) 16 program.  It is based on
 the Gaussian(R) 09 system (copyright 2009, Gaussian, Inc.),
 the Gaussian(R) 03 system (copyright 2003, Gaussian, Inc.),
 the Gaussian(R) 98 system (copyright 1998, Gaussian, Inc.),
 the Gaussian(R) 94 system (copyright 1995, Gaussian, Inc.),
 the Gaussian 92(TM) system (copyright 1992, Gaussian, Inc.),
 the Gaussian 90(TM) system (copyright 1990, Gaussian, Inc.),
 the Gaussian 88(TM) system (copyright 1988, Gaussian, Inc.),
 the Gaussian 86(TM) system (copyright 1986, Carnegie Mellon
 University), and the Gaussian 82(TM) system (copyright 1983,
 Carnegie Mellon University). Gaussian is a federally registered
 trademark of Gaussian, Inc.
  
 This software contains proprietary and confidential information,
 including trade secrets, belonging to Gaussian, Inc.
  
 This software is provided under written license and may be
 used, copied, transmitted, or stored only in accord with that
 written license.
  
 The following legend is applicable only to US Government
 contracts under FAR:
  
                    RESTRICTED RIGHTS LEGEND
  
 Use, reproduction and disclosure by the US Government is
 subject to restrictions as set forth in subparagraphs (a)
 and (c) of the Commercial Computer Software - Restricted
 Rights clause in FAR 52.227-19.
  
 Gaussian, Inc.
 340 Quinnipiac St., Bldg. 40, Wallingford CT 06492
  
  
 ---------------------------------------------------------------
 Warning -- This program may not be used in any manner that
 competes with the business of Gaussian, Inc. or will provide
 assistance to any competitor of Gaussian, Inc.  The licensee
 of this program is prohibited from giving any competitor of
 Gaussian, Inc. access to this program.  By using this program,
 the user acknowledges that Gaussian, Inc. is engaged in the
 business of creating and licensing software in the field of
 computational chemistry and represents and warrants to the
 licensee that it is not a competitor of Gaussian, Inc. and that
 it will not use this program in any manner prohibited above.
 ---------------------------------------------------------------
  

 Cite this work as:
 Gaussian 16, Revision C.02,
 M. J. Frisch, G. W. Trucks, H. B. Schlegel, G. E. Scuseria, 
 M. A. Robb, J. R. Cheeseman, G. Scalmani, V. Barone, 
 G. A. Petersson, H. Nakatsuji, X. Li, M. Caricato, A. V. Marenich, 
 J. Bloino, B. G. Janesko, R. Gomperts, B. Mennucci, H. P. Hratchian, 
 J. V. Ortiz, A. F. Izmaylov, J. L. Sonnenberg, D. Williams-Young, 
 F. Ding, F. Lipparini, F. Egidi, J. Goings, B. Peng, A. Petrone, 
 T. Henderson, D. Ranasinghe, V. G. Zakrzewski, J. Gao, N. Rega, 
 G. Zheng, W. Liang, M. Hada, M. Ehara, K. Toyota, R. Fukuda, 
 J. Hasegawa, M. Ishida, T. Nakajima, Y. Honda, O. Kitao, H. Nakai, 
 T. Vreven, K. Throssell, J. A. Montgomery, Jr., J. E. Peralta, 
 F. Ogliaro, M. J. Bearpark, J. J. Heyd, E. N. Brothers, K. N. Kudin, 
 V. N. Staroverov, T. A. Keith, R. Kobayashi, J. Normand, 
 K. Raghavachari, A. P. Rendell, J. C. Burant, S. S. Iyengar, 
 J. Tomasi, M. Cossi, J. M. Millam, M. Klene, C. Adamo, R. Cammi, 
 J. W. Ochterski, R. L. Martin, K. Morokuma, O. Farkas, 
 J. B. Foresman, and D. J. Fox, Gaussian, Inc., Wallingford CT, 2019.
 
 ******************************************
 Gaussian 16:  ES64L-G16RevC.02  7-Dec-2021
                30-Jan-2023 
 ******************************************
 %NProcShared=2
 Will use up to    2 processors via shared memory.
 %mem=110gb
 %chk=/scratch1/svicchi/G09-83844.pbs02/00-opt/FeFeFe-A-2xH2O-opt.chk
 ----------------------------------------------------------------------
 #p opt=(cartesian,maxcycle=500) gen um06l int=grid=ultrafine scf=(xqc,
 intrep,maxconventionalcycle=150) pop=(hirshfeld) nosymm
 ----------------------------------------------------------------------
 1/6=500,10=7,18=10,26=4,38=1/1,3;
 2/12=2,15=1,17=6,18=5,29=2,40=1/2;
 3/5=7,11=2,25=1,30=1,71=1,74=-53,75=-5,116=2/1,2,3;
 4//1;
 5/5=2,8=3,13=1,17=20,38=5,85=150/2,8;
 6/7=2,8=2,9=2,10=2,28=1,79=1/1;
 7/7=1,29=1,30=1/1,2,3,16;
 1/6=500,10=7,18=10,26=4/3(2);
 2/15=1,29=1/2;
 99/12=1/99;
 2/15=1,29=1/2;
 3/5=7,6=1,11=2,25=1,30=1,71=1,74=-53,75=-5,82=7,116=2/1,2,3;
 4/5=5,16=3,69=1/1;
 5/5=2,8=3,13=1,17=20,38=5,85=150/2,8;
 7/7=1,30=1/1,2,3,16;
 1/6=500,18=10,26=4/3(-5);
 2/15=1,29=1/2;
 6/7=2,8=2,9=2,10=2,19=2,28=1,79=1/1;
 99/9=1,12=1/99;
 Leave Link    1 at Mon Jan 30 16:50:51 2023, MaxMem= 14763950080 cpu:               0.0 elap:               0.2
 (Enter /software/commercial/gaussian/g16/AVX2/g16/l101.exe)
 --------------
 FeFeFe-A-2xH2O
 --------------
 Symbolic Z-matrix:
 Charge =  0 Multiplicity =15
 O                     1.3742   -2.16729  -1.68844 
 O                    -0.85601  -2.24533  -1.37538 
 C                     0.21811  -2.57969  -1.93173 
 H                     0.1279   -3.32767  -2.73793 
 O                     1.92845   2.21652   1.39165 
 O                     3.18856   0.39046   0.99645 
 C                     2.92629   1.48069   1.55875 
 H                     3.66902   1.83856   2.29435 
 O                    -2.27368   0.17857  -1.12781 
 O                     2.77373   0.41185  -1.84548 
 O                     1.69043   2.35034  -1.46556 
 C                     2.5024    1.61103  -2.0731 
 H                     3.04533   2.07691  -2.91472 
 O                    -0.40807  -2.32896   1.41707 
 O                     1.82734  -2.24957   1.15295 
 C                     0.76676  -2.67516   1.67121 
 H                     0.88252  -3.44933   2.45038 
 Fe                   -1.08709  -0.91191   0.12143 
 O                    -2.00847  -0.01209   1.67154 
 Fe                    0.36801   1.99844   0.10421 
 O                    -1.00256   2.00483   1.62737 
 O                    -1.25091   2.18227  -1.22487 
 Fe                    2.13312  -0.82103  -0.36211 
 O                     0.47976   0.09056  -0.01197 
 C                    -1.80516   1.1589    2.07824 
 H                    -2.41229   1.47512   2.94406 
 C                    -2.15068   1.35918  -1.5211 
 H                    -2.92913   1.7187   -2.21732 
 O                     0.16394   4.16561  -0.06914 
 H                     0.91288   4.37674  -0.64253 
 H                    -0.60521   4.18361  -0.65912 
 O                     4.06758  -1.83027  -0.27866 
 H                     4.56668  -1.1639    0.21475 
 H                     3.84169  -2.5006    0.38504 
 
 ITRead=  0  0  0  0  0  0  0  0  0  0  0  0  0  0  0  0  0  0  0  0
 ITRead=  0  0  0  0  0  0  0  0  0  0  0  0  0  0
 MicOpt= -1 -1 -1 -1 -1 -1 -1 -1 -1 -1 -1 -1 -1 -1 -1 -1 -1 -1 -1 -1
 MicOpt= -1 -1 -1 -1 -1 -1 -1 -1 -1 -1 -1 -1 -1 -1
 NAtoms=     34 NQM=       34 NQMF=       0 NMMI=      0 NMMIF=      0
                NMic=       0 NMicF=      0.
                    Isotopes and Nuclear Properties:
 (Nuclear quadrupole moments (NQMom) in fm**2, nuclear magnetic moments (NMagM)
  in nuclear magnetons)

  Atom         1           2           3           4           5           6           7           8           9          10
 IAtWgt=          16          16          12           1          16          16          12           1          16          16
 AtmWgt=  15.9949146  15.9949146  12.0000000   1.0078250  15.9949146  15.9949146  12.0000000   1.0078250  15.9949146  15.9949146
 NucSpn=           0           0           0           1           0           0           0           1           0           0
 AtZEff=  -0.0000000  -0.0000000  -0.0000000  -0.0000000  -0.0000000  -0.0000000  -0.0000000  -0.0000000  -0.0000000  -0.0000000
 NQMom=    0.0000000   0.0000000   0.0000000   0.0000000   0.0000000   0.0000000   0.0000000   0.0000000   0.0000000   0.0000000
 NMagM=    0.0000000   0.0000000   0.0000000   2.7928460   0.0000000   0.0000000   0.0000000   2.7928460   0.0000000   0.0000000
 AtZNuc=   8.0000000   8.0000000   6.0000000   1.0000000   8.0000000   8.0000000   6.0000000   1.0000000   8.0000000   8.0000000

  Atom        11          12          13          14          15          16          17          18          19          20
 IAtWgt=          16          12           1          16          16          12           1          56          16          56
 AtmWgt=  15.9949146  12.0000000   1.0078250  15.9949146  15.9949146  12.0000000   1.0078250  55.9349393  15.9949146  55.9349393
 NucSpn=           0           0           1           0           0           0           1           0           0           0
 AtZEff=  -0.0000000  -0.0000000  -0.0000000  -0.0000000  -0.0000000  -0.0000000  -0.0000000  -0.0000000  -0.0000000  -0.0000000
 NQMom=    0.0000000   0.0000000   0.0000000   0.0000000   0.0000000   0.0000000   0.0000000   0.0000000   0.0000000   0.0000000
 NMagM=    0.0000000   0.0000000   2.7928460   0.0000000   0.0000000   0.0000000   2.7928460   0.0000000   0.0000000   0.0000000
 AtZNuc=   8.0000000   6.0000000   1.0000000   8.0000000   8.0000000   6.0000000   1.0000000  26.0000000   8.0000000  26.0000000

  Atom        21          22          23          24          25          26          27          28          29          30
 IAtWgt=          16          16          56          16          12           1          12           1          16           1
 AtmWgt=  15.9949146  15.9949146  55.9349393  15.9949146  12.0000000   1.0078250  12.0000000   1.0078250  15.9949146   1.0078250
 NucSpn=           0           0           0           0           0           1           0           1           0           1
 AtZEff=  -0.0000000  -0.0000000  -0.0000000  -0.0000000  -0.0000000  -0.0000000  -0.0000000  -0.0000000  -0.0000000  -0.0000000
 NQMom=    0.0000000   0.0000000   0.0000000   0.0000000   0.0000000   0.0000000   0.0000000   0.0000000   0.0000000   0.0000000
 NMagM=    0.0000000   0.0000000   0.0000000   0.0000000   0.0000000   2.7928460   0.0000000   2.7928460   0.0000000   2.7928460
 AtZNuc=   8.0000000   8.0000000  26.0000000   8.0000000   6.0000000   1.0000000   6.0000000   1.0000000   8.0000000   1.0000000

  Atom        31          32          33          34
 IAtWgt=           1          16           1           1
 AtmWgt=   1.0078250  15.9949146   1.0078250   1.0078250
 NucSpn=           1           0           1           1
 AtZEff=  -0.0000000  -0.0000000  -0.0000000  -0.0000000
 NQMom=    0.0000000   0.0000000   0.0000000   0.0000000
 NMagM=    2.7928460   0.0000000   2.7928460   2.7928460
 AtZNuc=   1.0000000   8.0000000   1.0000000   1.0000000
 Leave Link  101 at Mon Jan 30 16:50:52 2023, MaxMem= 14763950080 cpu:               0.1 elap:               0.1
 (Enter /software/commercial/gaussian/g16/AVX2/g16/l103.exe)

 GradGradGradGradGradGradGradGradGradGradGradGradGradGradGradGradGradGrad
 Berny optimization.
 Initialization pass.
 No Z-matrix variables, so optimization will use Cartesian coordinates.
 Trust Radius=3.00D-01 FncErr=1.00D-07 GrdErr=1.00D-06 EigMax=2.50D+02 EigMin=1.00D-04
 Number of steps in this run=    204 maximum allowed number of steps=    204.
 GradGradGradGradGradGradGradGradGradGradGradGradGradGradGradGradGradGrad

 Leave Link  103 at Mon Jan 30 16:50:52 2023, MaxMem= 14763950080 cpu:               0.1 elap:               0.1
 (Enter /software/commercial/gaussian/g16/AVX2/g16/l202.exe)
 ---------------------------------------------------------------------------------------------------
                            Z-MATRIX (ANGSTROMS AND DEGREES)
   CD    Cent   Atom    N1       Length/X        N2       Alpha/Y        N3        Beta/Z          J
 ---------------------------------------------------------------------------------------------------
      1      1  O        0   1.374196         -2.167288         -1.688443
      2      2  O        0  -0.856014         -2.245335         -1.375380
      3      3  C        0   0.218105         -2.579687         -1.931727
      4      4  H        0   0.127902         -3.327674         -2.737931
      5      5  O        0   1.928449          2.216523          1.391648
      6      6  O        0   3.188558          0.390455          0.996451
      7      7  C        0   2.926291          1.480693          1.558745
      8      8  H        0   3.669022          1.838560          2.294354
      9      9  O        0  -2.273682          0.178568         -1.127806
     10     10  O        0   2.773725          0.411849         -1.845481
     11     11  O        0   1.690434          2.350340         -1.465561
     12     12  C        0   2.502402          1.611029         -2.073105
     13     13  H        0   3.045326          2.076912         -2.914722
     14     14  O        0  -0.408067         -2.328955          1.417068
     15     15  O        0   1.827336         -2.249568          1.152947
     16     16  C        0   0.766758         -2.675159          1.671211
     17     17  H        0   0.882518         -3.449326          2.450379
     18     18  Fe       0  -1.087087         -0.911906          0.121433
     19     19  O        0  -2.008465         -0.012085          1.671540
     20     20  Fe       0   0.368012          1.998441          0.104211
     21     21  O        0  -1.002559          2.004833          1.627373
     22     22  O        0  -1.250915          2.182273         -1.224871
     23     23  Fe       0   2.133123         -0.821029         -0.362112
     24     24  O        0   0.479756          0.090561         -0.011971
     25     25  C        0  -1.805164          1.158900          2.078245
     26     26  H        0  -2.412293          1.475122          2.944058
     27     27  C        0  -2.150682          1.359176         -1.521100
     28     28  H        0  -2.929129          1.718699         -2.217323
     29     29  O        0   0.163944          4.165615         -0.069136
     30     30  H        0   0.912878          4.376737         -0.642533
     31     31  H        0  -0.605212          4.183611         -0.659121
     32     32  O        0   4.067580         -1.830271         -0.278655
     33     33  H        0   4.566676         -1.163899          0.214751
     34     34  H        0   3.841686         -2.500596          0.385044
 ---------------------------------------------------------------------------------------------------
                         Z-Matrix orientation:                         
 ---------------------------------------------------------------------
 Center     Atomic      Atomic             Coordinates (Angstroms)
 Number     Number       Type             X           Y           Z
 ---------------------------------------------------------------------
      1          8           0        1.374196   -2.167288   -1.688443
      2          8           0       -0.856014   -2.245335   -1.375380
      3          6           0        0.218105   -2.579687   -1.931727
      4          1           0        0.127902   -3.327674   -2.737931
      5          8           0        1.928449    2.216523    1.391648
      6          8           0        3.188558    0.390455    0.996451
      7          6           0        2.926291    1.480693    1.558745
      8          1           0        3.669022    1.838560    2.294354
      9          8           0       -2.273682    0.178568   -1.127806
     10          8           0        2.773725    0.411849   -1.845481
     11          8           0        1.690434    2.350340   -1.465561
     12          6           0        2.502402    1.611029   -2.073105
     13          1           0        3.045326    2.076912   -2.914722
     14          8           0       -0.408067   -2.328955    1.417068
     15          8           0        1.827336   -2.249568    1.152947
     16          6           0        0.766758   -2.675159    1.671211
     17          1           0        0.882518   -3.449326    2.450379
     18         26           0       -1.087087   -0.911906    0.121433
     19          8           0       -2.008465   -0.012085    1.671540
     20         26           0        0.368012    1.998441    0.104211
     21          8           0       -1.002559    2.004833    1.627373
     22          8           0       -1.250915    2.182273   -1.224871
     23         26           0        2.133123   -0.821029   -0.362112
     24          8           0        0.479756    0.090561   -0.011971
     25          6           0       -1.805164    1.158900    2.078245
     26          1           0       -2.412293    1.475122    2.944058
     27          6           0       -2.150682    1.359176   -1.521100
     28          1           0       -2.929129    1.718699   -2.217323
     29          8           0        0.163944    4.165615   -0.069136
     30          1           0        0.912878    4.376737   -0.642533
     31          1           0       -0.605212    4.183611   -0.659121
     32          8           0        4.067580   -1.830271   -0.278655
     33          1           0        4.566676   -1.163899    0.214751
     34          1           0        3.841686   -2.500596    0.385044
 ---------------------------------------------------------------------
                    Distance matrix (angstroms):
                    1          2          3          4          5
     1  O    0.000000
     2  O    2.253428   0.000000
     3  C    1.251322   1.255008   0.000000
     4  H    2.000292   1.999023   1.103443   0.000000
     5  O    5.386275   5.942883   6.080603   7.143774   0.000000
     6  O    4.128270   5.378804   5.120504   6.094071   2.253570
     7  C    5.124548   6.066152   6.000363   7.029424   1.251022
     8  H    6.097189   7.114850   7.020648   8.034513   1.996830
     9  O    4.373142   2.818933   3.803060   4.544650   5.306488
    10  O    2.938586   4.522900   3.935469   4.666999   3.801361
    11  O    4.534164   5.254784   5.166259   6.024971   2.870227
    12  C    3.961880   5.161136   4.774945   5.520057   3.563784
    13  H    4.723311   6.022611   5.535646   6.144279   4.451037
    14  O    3.584243   2.829384   3.416048   4.306822   5.110902
    15  O    2.878472   3.686845   3.494827   4.380562   4.473608
    16  C    3.451694   3.478484   3.645723   4.502715   5.035497
    17  H    4.360644   4.371329   4.516699   5.244312   5.858048
    18  Fe   3.302961   2.017889   2.949659   3.935492   4.527027
    19  O    5.232283   3.949591   4.953153   5.916133   4.532585
    20  Fe   4.645354   4.658011   5.012661   6.041765   2.034703
    21  O    5.835254   5.205951   5.930855   6.983513   2.948082
    22  O    5.101450   4.447731   5.033282   5.877925   4.117730
    23  Fe   2.036550   3.462701   3.037081   3.993582   3.513444
    24  O    2.951011   3.016550   3.299113   4.386227   2.930627
    25  C    5.946410   4.941379   5.843845   6.860149   3.940793
    26  H    7.004621   5.909429   6.865402   7.861580   4.669228
    27  C    4.988859   3.832740   4.614586   5.351559   5.085121
    28  H    5.822303   4.551949   5.335051   5.923036   6.071949
    29  O    6.647746   6.621697   6.997948   7.954442   3.007711
    30  H    6.643117   6.893321   7.108907   8.022769   3.136208
    31  H    6.731380   6.473583   6.931059   7.828046   3.807168
    32  O    3.058660   5.061310   4.255905   4.879684   4.872611
    33  H    3.849788   5.753572   5.051920   5.753518   4.446637
    34  H    3.240208   5.023210   4.301630   4.922319   5.188925
                    6          7          8          9         10
     6  O    0.000000
     7  C    1.254423   0.000000
     8  H    2.003099   1.104916   0.000000
     9  O    5.864591   5.996066   7.055670   0.000000
    10  O    2.872128   3.571338   4.469373   5.103508   0.000000
    11  O    3.485259   3.380836   4.279450   4.532647   2.252911
    12  C    3.373838   3.658825   4.526309   5.075087   1.250385
    13  H    4.261681   4.514593   5.251693   5.923565   1.997368
    14  O    4.528556   5.064724   5.895801   4.030456   5.317897
    15  O    2.974414   3.909888   4.626814   5.283562   4.119389
    16  C    3.964644   4.684799   5.402324   5.022204   5.091626
    17  H    4.709102   5.410832   5.979188   5.993882   6.077808
    18  Fe   4.554442   4.888517   5.908233   2.039054   4.530667
    19  O    5.256123   5.156833   6.003886   2.818338   5.951344
    20  Fe   3.367075   2.988064   3.964714   3.436328   3.479372
    21  O    4.535388   3.964252   4.721883   3.541470   5.372023
    22  O    5.277670   5.068509   6.058784   2.251734   4.440415
    23  Fe   2.104122   3.101085   4.060691   4.583166   2.032423
    24  O    2.905935   3.222600   4.306513   2.972247   2.954197
    25  C    5.167015   4.770754   5.520449   3.385162   6.076178
    26  H    6.028201   5.515397   6.126712   4.275552   7.138979
    27  C    5.981970   5.939349   6.975418   1.250458   5.025180
    28  H    7.036950   6.971462   7.994072   1.997163   5.862480
    29  O    4.953342   4.182029   4.825644   4.791591   4.904806
    30  H    4.873954   4.157707   4.760670   5.292852   4.542045
    31  H    5.614414   4.969528   5.700119   4.363923   5.201044
    32  O    2.707434   3.954878   4.498838   6.705825   3.025906
    33  H    2.219523   3.389845   3.761023   7.098956   3.153127
    34  H    3.026313   4.250433   4.743791   6.845755   3.820748
                   11         12         13         14         15
    11  O    0.000000
    12  C    1.254983   0.000000
    13  H    2.002639   1.104596   0.000000
    14  O    5.882946   6.014616   7.078276   0.000000
    15  O    5.294760   5.076154   6.062001   2.252352   0.000000
    16  C    5.995678   5.950107   6.986046   1.250864   1.254811
    17  H    7.044391   6.978046   8.000085   1.997141   2.003854
    18  Fe   4.568963   4.905673   5.935327   2.036607   3.368564
    19  O    5.394841   6.083156   7.137122   2.827351   4.470865
    20  Fe   2.082503   3.073502   4.035855   4.588273   4.612489
    21  O    4.115559   5.112081   6.084505   4.379425   5.131600
    22  O    2.955962   3.890143   4.617833   5.295414   5.896682
    23  Fe   3.386909   2.996460   3.968122   3.449198   2.104669
    24  O    2.947078   3.263617   4.353585   2.946937   2.940954
    25  C    5.118329   5.999438   7.021376   3.814992   5.066447
    26  H    6.086306   7.024573   8.029512   4.562852   5.920798
    27  C    3.967324   4.692476   5.427322   5.027111   5.999849
    28  H    4.722762   5.434512   6.025678   5.995670   7.051937
    29  O    2.752344   4.001273   4.556578   6.686960   6.739060
    30  H    2.321261   3.496035   3.872902   7.138148   6.925886
    31  H    3.046509   4.274903   4.780413   6.838344   7.112431
    32  O    4.953491   4.184779   4.822855   4.812024   2.691466
    33  H    4.842117   4.146774   4.755099   5.248904   3.092389
    34  H    5.619983   4.974097   5.698791   4.376635   2.170322
                   16         17         18         19         20
    16  C    0.000000
    17  H    1.104463   0.000000
    18  Fe   2.991256   3.967598   0.000000
    19  O    3.846274   4.558399   2.015303   0.000000
    20  Fe   4.945404   5.953771   3.253879   3.485165   0.000000
    21  O    5.003472   5.829126   3.283651   2.254275   2.049031
    22  O    6.004410   7.055062   3.378360   3.711911   2.102660
    23  Fe   3.072321   4.047476   3.257580   4.684323   3.358941
    24  O    3.250335   4.330841   1.864868   3.005992   1.914678
    25  C    4.634703   5.347697   2.938194   1.256163   3.053577
    26  H    5.380645   5.945560   3.926994   1.998540   4.008577
    27  C    5.914234   6.935030   2.997826   3.477576   3.064982
    28  H    6.934426   7.938802   3.972780   4.355053   4.042142
    29  O    7.084376   8.053051   5.232840   5.020208   2.183652
    30  H    7.423207   8.415123   5.705545   5.757685   2.551626
    31  H    7.372617   8.375205   5.177428   5.000496   2.510938
    32  O    3.925715   4.495952   5.251101   6.635313   5.337830
    33  H    4.341032   4.877933   5.660145   6.832378   5.257508
    34  H    3.337646   3.731270   5.185193   6.486295   5.690924
                   21         22         23         24         25
    21  O    0.000000
    22  O    2.868529   0.000000
    23  Fe   4.666481   4.606071   0.000000
    24  O    2.923892   2.973484   1.920213   0.000000
    25  C    1.250225   3.502151   5.038409   3.275853   0.000000
    26  H    2.000401   4.385069   6.071563   4.361085   1.103736
    27  C    3.412908   1.254919   4.944445   3.287257   3.621433
    28  H    4.309899   2.004062   5.959733   4.374347   4.475330
    29  O    2.984602   2.696515   5.369369   4.087673   4.186761
    30  H    3.800961   3.136366   5.346439   4.353907   5.014465
    31  H    3.183239   2.177696   5.712540   4.283575   4.252286
    32  O    6.636812   6.729207   2.183497   4.078382   6.998517
    33  H    6.561459   6.863945   2.524383   4.281120   7.033374
    34  H    6.731195   7.103216   2.509656   4.263131   6.938714
                   26         27         28         29         30
    26  H    0.000000
    27  C    4.474318   0.000000
    28  H    5.192909   1.104519   0.000000
    29  O    4.791147   3.916860   4.491014   0.000000
    30  H    5.686806   4.388958   4.930127   0.966571   0.000000
    31  H    4.856372   3.333004   3.728857   0.969540   1.530415
    32  O    7.956146   7.098100   8.081309   7.157718   6.972195
    33  H    7.944782   7.382546   8.391153   6.918696   6.692072
    34  H    7.840098   7.378326   8.391585   7.626954   7.545299
                   31         32         33         34
    31  H    0.000000
    32  O    7.625386   0.000000
    33  H    7.490523   0.967780   0.000000
    34  H    8.095913   0.969979   1.530153   0.000000
 Symmetry turned off by external request.
 Stoichiometry    C6H10Fe3O15(15)
 Framework group  C1[X(C6H10Fe3O15)]
 Deg. of freedom    96
 Full point group                 C1      NOp   1
 Rotational constants (GHZ):           0.2438102           0.2131830           0.1634701
 Leave Link  202 at Mon Jan 30 16:50:53 2023, MaxMem= 14763950080 cpu:               0.0 elap:               0.1
 (Enter /software/commercial/gaussian/g16/AVX2/g16/l301.exe)
 General basis read from cards:  (5D, 7F)
 Centers:       4      8     13     17     26     28     30     31     33     34
 S 3 1.00
     Exponent=  3.4061341000D+01 Coefficients=  6.0251978000D-03
     Exponent=  5.1235746000D+00 Coefficients=  4.5021094000D-02
     Exponent=  1.1646626000D+00 Coefficients=  2.0189726000D-01
 S 1 1.00
     Exponent=  3.2723041000D-01 Coefficients=  1.0000000000D+00
 S 1 1.00
     Exponent=  1.0307241000D-01 Coefficients=  1.0000000000D+00
 P 1 1.00
     Exponent=  8.0000000000D-01 Coefficients=  1.0000000000D+00
 ****
 Centers:       1      2      5      6      9     10     11     14     15     19
 Centers:      21     22     24     29     32
 S 6 1.00
     Exponent=  2.7032382631D+04 Coefficients=  2.1726302465D-04
     Exponent=  4.0523871392D+03 Coefficients=  1.6838662199D-03
     Exponent=  9.2232722710D+02 Coefficients=  8.7395616265D-03
     Exponent=  2.6124070989D+02 Coefficients=  3.5239968808D-02
     Exponent=  8.5354641351D+01 Coefficients=  1.1153519115D-01
     Exponent=  3.1035035245D+01 Coefficients=  2.5588953961D-01
 S 2 1.00
     Exponent=  1.2260860728D+01 Coefficients=  3.9768730901D-01
     Exponent=  4.9987076005D+00 Coefficients=  2.4627849430D-01
 S 1 1.00
     Exponent=  1.1703108158D+00 Coefficients=  1.0000000000D+00
 S 1 1.00
     Exponent=  4.6474740994D-01 Coefficients=  1.0000000000D+00
 S 1 1.00
     Exponent=  1.8504536357D-01 Coefficients=  1.0000000000D+00
 P 4 1.00
     Exponent=  6.3274954801D+01 Coefficients=  6.0685103418D-03
     Exponent=  1.4627049379D+01 Coefficients=  4.1912575824D-02
     Exponent=  4.4501223456D+00 Coefficients=  1.6153841088D-01
     Exponent=  1.5275799647D+00 Coefficients=  3.5706951311D-01
 P 1 1.00
     Exponent=  5.2935117943D-01 Coefficients=  4.4794207502D-01
 P 1 1.00
     Exponent=  1.7478421270D-01 Coefficients=  2.4446069663D-01
 D 1 1.00
     Exponent=  2.3140000000D+00 Coefficients=  1.0000000000D+00
 D 1 1.00
     Exponent=  6.4500000000D-01 Coefficients=  1.0000000000D+00
 F 1 1.00
     Exponent=  1.4280000000D+00 Coefficients=  1.0000000000D+00
 ****
 Centers:       3      7     12     16     25     27
 S 6 1.00
     Exponent=  1.3575349682D+04 Coefficients=  2.2245814352D-04
     Exponent=  2.0352333680D+03 Coefficients=  1.7232738252D-03
     Exponent=  4.6322562359D+02 Coefficients=  8.9255715314D-03
     Exponent=  1.3120019598D+02 Coefficients=  3.5727984502D-02
     Exponent=  4.2853015891D+01 Coefficients=  1.1076259931D-01
     Exponent=  1.5584185766D+01 Coefficients=  2.4295627626D-01
 S 2 1.00
     Exponent=  6.2067138508D+00 Coefficients=  4.1440263448D-01
     Exponent=  2.5764896527D+00 Coefficients=  2.3744968655D-01
 S 1 1.00
     Exponent=  5.7696339419D-01 Coefficients=  1.0000000000D+00
 S 1 1.00
     Exponent=  2.2972831358D-01 Coefficients=  1.0000000000D+00
 S 1 1.00
     Exponent=  9.5164440028D-02 Coefficients=  1.0000000000D+00
 P 4 1.00
     Exponent=  3.4697232244D+01 Coefficients=  5.3333657805D-03
     Exponent=  7.9582622826D+00 Coefficients=  3.5864109092D-02
     Exponent=  2.3780826883D+00 Coefficients=  1.4215873329D-01
     Exponent=  8.1433208183D-01 Coefficients=  3.4270471845D-01
 P 1 1.00
     Exponent=  2.8887547253D-01 Coefficients=  4.6445822433D-01
 P 1 1.00
     Exponent=  1.0056823671D-01 Coefficients=  2.4955789874D-01
 D 1 1.00
     Exponent=  1.0970000000D+00 Coefficients=  1.0000000000D+00
 D 1 1.00
     Exponent=  3.1800000000D-01 Coefficients=  1.0000000000D+00
 F 1 1.00
     Exponent=  7.6100000000D-01 Coefficients=  1.0000000000D+00
 ****
 Centers:      18     20     23
 S 8 1.00
     Exponent=  3.0078484637D+05 Coefficients=  2.2806273096D-04
     Exponent=  4.5088970557D+04 Coefficients=  1.7681788761D-03
     Exponent=  1.0262516317D+04 Coefficients=  9.1927083490D-03
     Exponent=  2.9052897293D+03 Coefficients=  3.7355495807D-02
     Exponent=  9.4611487137D+02 Coefficients=  1.2151108426D-01
     Exponent=  3.3987832894D+02 Coefficients=  2.8818881468D-01
     Exponent=  1.3194425588D+02 Coefficients=  4.1126612677D-01
     Exponent=  5.2111494077D+01 Coefficients=  2.1518583573D-01
 S 4 1.00
     Exponent=  3.2948839267D+02 Coefficients= -2.4745216477D-02
     Exponent=  1.0192332739D+02 Coefficients= -1.1683089050D-01
     Exponent=  1.6240462745D+01 Coefficients=  5.5293621136D-01
     Exponent=  6.8840675801D+00 Coefficients=  5.3601640182D-01
 S 2 1.00
     Exponent=  1.0470693782D+01 Coefficients= -2.2912708577D-01
     Exponent=  1.7360039648D+00 Coefficients=  7.1159319984D-01
 S 1 1.00
     Exponent=  7.2577288979D-01 Coefficients=  1.0000000000D+00
 S 1 1.00
     Exponent=  1.1595528203D-01 Coefficients=  1.0000000000D+00
 S 1 1.00
     Exponent=  4.1968227746D-02 Coefficients=  1.0000000000D+00
 P 6 1.00
     Exponent=  1.5853959970D+03 Coefficients=  2.3793960179D-03
     Exponent=  3.7538006499D+02 Coefficients=  1.9253154755D-02
     Exponent=  1.2031816501D+02 Coefficients=  9.0021836536D-02
     Exponent=  4.4788749031D+01 Coefficients=  2.5798172356D-01
     Exponent=  1.7829278584D+01 Coefficients=  4.1492649744D-01
     Exponent=  7.2247153786D+00 Coefficients=  2.4207474784D-01
 P 3 1.00
     Exponent=  2.8143219756D+01 Coefficients= -2.9041755152D-02
     Exponent=  3.8743241412D+00 Coefficients=  5.5312260343D-01
     Exponent=  1.5410752281D+00 Coefficients=  9.6771136842D-01
 P 1 1.00
     Exponent=  5.8285615250D-01 Coefficients=  1.0000000000D+00
 P 1 1.00
     Exponent=  1.3491500000D-01 Coefficients=  1.0000000000D+00
 D 4 1.00
     Exponent=  6.1996675034D+01 Coefficients=  1.1971972255D-02
     Exponent=  1.7873732552D+01 Coefficients=  7.3210135410D-02
     Exponent=  6.2744782934D+00 Coefficients=  2.3103094314D-01
     Exponent=  2.3552337175D+00 Coefficients=  3.9910706494D-01
 D 1 1.00
     Exponent=  8.5432239901D-01 Coefficients=  4.1391589765D-01
 D 1 1.00
     Exponent=  2.7869254413D-01 Coefficients=  2.1909269782D-01
 D 1 1.00
     Exponent=  9.1000000000D-02 Coefficients=  1.0000000000D+00
 F 1 1.00
     Exponent=  1.5980000000D+00 Coefficients=  1.0000000000D+00
 ****
 Ernie: Thresh=  0.10000D-02 Tol=  0.10000D-05 Strict=F.
   846 basis functions,  1457 primitive gaussians,   972 cartesian basis functions
   129 alpha electrons      115 beta electrons
       nuclear repulsion energy      4416.5202158591 Hartrees.
 IExCor= 4134 DFT=T Ex+Corr=M06L ExCW=0 ScaHFX=  0.000000
 ScaDFX=  1.000000  1.000000  1.000000  1.000000 ScalE2=  1.000000  1.000000
 IRadAn=      5 IRanWt=     -1 IRanGd=            0 ICorTp=0 IEmpDi=  4
 NAtoms=   34 NActive=   34 NUniq=   34 SFac= 1.00D+00 NAtFMM=   60 NAOKFM=F Big=F
 Integral buffers will be    131072 words long.
 Raffenetti 2 integral format.
 Two-electron integral symmetry is turned off.
 Leave Link  301 at Mon Jan 30 16:50:53 2023, MaxMem= 14763950080 cpu:               0.1 elap:               0.1
 (Enter /software/commercial/gaussian/g16/AVX2/g16/l302.exe)
 NPDir=0 NMtPBC=     1 NCelOv=     1 NCel=       1 NClECP=     1 NCelD=      1
         NCelK=      1 NCelE2=     1 NClLst=     1 CellRange=     0.0.
 One-electron integrals computed using PRISM.
 NBasis=   846 RedAO= T EigKep=  5.19D-04  NBF=   846
 NBsUse=   846 1.00D-06 EigRej= -1.00D+00 NBFU=   846
 Precomputing XC quadrature grid using
 IXCGrd= 4 IRadAn=           5 IRanWt=          -1 IRanGd=           0 AccXCQ= 0.00D+00.
 Generated NRdTot=       0 NPtTot=           0 NUsed=           0 NTot=          32
 NSgBfM=   962   962   962   962   962 MxSgAt=    34 MxSgA2=    34.
 Leave Link  302 at Mon Jan 30 16:50:55 2023, MaxMem= 14763950080 cpu:               2.6 elap:               1.7
 (Enter /software/commercial/gaussian/g16/AVX2/g16/l303.exe)
 DipDrv:  MaxL=1.
 Leave Link  303 at Mon Jan 30 16:50:55 2023, MaxMem= 14763950080 cpu:               0.2 elap:               0.2
 (Enter /software/commercial/gaussian/g16/AVX2/g16/l401.exe)
 ExpMin= 4.20D-02 ExpMax= 3.01D+05 ExpMxC= 2.91D+03 IAcc=3 IRadAn=         5 AccDes= 0.00D+00
 Harris functional with IExCor= 1009 and IRadAn=       5 diagonalized for initial guess.
 HarFok:  IExCor= 1009 AccDes= 0.00D+00 IRadAn=         5 IDoV= 1 UseB2=F ITyADJ=14
 ICtDFT=  3500011 ScaDFX=  1.000000  1.000000  1.000000  1.000000
 FoFCou: FMM=F IPFlag=           0 FMFlag=      100000 FMFlg1=           0
         NFxFlg=           0 DoJE=T BraDBF=F KetDBF=T FulRan=T
         wScrn=  0.000000 ICntrl=       500 IOpCl=  0 I1Cent=   200000004 NGrid=           0
         NMat0=    1 NMatS0=      1 NMatT0=    0 NMatD0=    1 NMtDS0=    0 NMtDT0=    0
 Symmetry not used in FoFCou.
 Harris En= -5152.78201134541    
 JPrj=0 DoOrth=F DoCkMO=F.
 Initial guess <Sx>= 0.0000 <Sy>= 0.0000 <Sz>= 7.0000 <S**2>=56.0000 S= 7.0000
 Leave Link  401 at Mon Jan 30 16:51:11 2023, MaxMem= 14763950080 cpu:              29.3 elap:              15.1
 (Enter /software/commercial/gaussian/g16/AVX2/g16/l502.exe)
 Two-electron integral symmetry not used.
 UHF open shell SCF:
 Using DIIS extrapolation, IDIIS=  1040.
 NGot= 14763950080 LenX= 14762047750 LenY= 14761101994
 Requested convergence on RMS density matrix=1.00D-08 within 150 cycles.
 Requested convergence on MAX density matrix=1.00D-06.
 Requested convergence on             energy=1.00D-06.
 No special actions if energy rises.
 Fock matrices will be formed incrementally for  20 cycles.

 Cycle   1  Pass 1  IDiag  1:
 FoFJK:  IHMeth= 1 ICntrl=     500 DoSepK=F KAlg= 0 I1Cent=           0 FoldK=F
 IRaf= 790000000 NMat=       1 IRICut=       1 DoRegI=T DoRafI=F ISym2E= 0 IDoP0=0 IntGTp=1.
 FoFCou: FMM=F IPFlag=           0 FMFlag=      100000 FMFlg1=           0
         NFxFlg=           0 DoJE=T BraDBF=F KetDBF=F FulRan=T
         wScrn=  0.000000 ICntrl=       500 IOpCl=  0 I1Cent=           0 NGrid=           0
         NMat0=    1 NMatS0=      1 NMatT0=    0 NMatD0=    1 NMtDS0=    0 NMtDT0=    0
 Symmetry not used in FoFCou.
 E= -5153.98222078857    
 DIIS: error= 4.36D-02 at cycle   1 NSaved=   1.
 NSaved= 1 IEnMin= 1 EnMin= -5153.98222078857     IErMin= 1 ErrMin= 4.36D-02
 ErrMax= 4.36D-02  0.00D+00 EMaxC= 1.00D-01 BMatC= 8.53D+00 BMatP= 8.53D+00
 IDIUse=3 WtCom= 5.64D-01 WtEn= 4.36D-01
 Coeff-Com:  0.100D+01
 Coeff-En:   0.100D+01
 Coeff:      0.100D+01
 Gap=     0.443 Goal=   None    Shift=    0.000
 Gap=     0.016 Goal=   None    Shift=    0.000
 GapD=    0.016 DampG=0.250 DampE=0.250 DampFc=0.1250 IDamp=-1.
 Damping current iteration by 1.25D-01
 RMSDP=3.21D-03 MaxDP=4.93D-01              OVMax= 8.49D-01

 Cycle   2  Pass 1  IDiag  1:
 RMSU=  4.00D-04    CP:  9.97D-01
 E= -5154.19148340116     Delta-E=       -0.209262612589 Rises=F Damp=T
 DIIS: error= 2.21D-02 at cycle   2 NSaved=   2.
 NSaved= 2 IEnMin= 2 EnMin= -5154.19148340116     IErMin= 2 ErrMin= 2.21D-02
 ErrMax= 2.21D-02  0.00D+00 EMaxC= 1.00D-01 BMatC= 2.28D+00 BMatP= 8.53D+00
 IDIUse=3 WtCom= 7.79D-01 WtEn= 2.21D-01
 Coeff-Com: -0.379D+00 0.138D+01
 Coeff-En:   0.277D+00 0.723D+00
 Coeff:     -0.234D+00 0.123D+01
 Gap=     0.121 Goal=   None    Shift=    0.000
 Gap=     0.019 Goal=   None    Shift=    0.000
 RMSDP=1.49D-03 MaxDP=1.16D-01 DE=-2.09D-01 OVMax= 9.81D-01

 Cycle   3  Pass 1  IDiag  1:
 RMSU=  1.49D-03    CP:  9.92D-01  1.09D+00
 E= -5153.69922316909     Delta-E=        0.492260232075 Rises=F Damp=F
 DIIS: error= 4.46D-02 at cycle   3 NSaved=   3.
 NSaved= 3 IEnMin= 2 EnMin= -5154.19148340116     IErMin= 2 ErrMin= 2.21D-02
 ErrMax= 4.46D-02  0.00D+00 EMaxC= 1.00D-01 BMatC= 7.31D+00 BMatP= 2.28D+00
 IDIUse=2 WtCom= 0.00D+00 WtEn= 1.00D+00
 Coeff-En:   0.000D+00 0.659D+00 0.341D+00
 Coeff:      0.000D+00 0.659D+00 0.341D+00
 Gap=     0.293 Goal=   None    Shift=    0.000
 Gap=     0.047 Goal=   None    Shift=    0.000
 RMSDP=2.32D-03 MaxDP=3.22D-01 DE= 4.92D-01 OVMax= 8.16D-01

 Cycle   4  Pass 1  IDiag  1:
 RMSU=  1.35D-03    CP:  9.89D-01  3.00D+00 -4.74D-02
 E= -5147.71544353428     Delta-E=        5.983779634809 Rises=F Damp=F
 DIIS: error= 2.42D-01 at cycle   4 NSaved=   4.
 NSaved= 4 IEnMin= 2 EnMin= -5154.19148340116     IErMin= 2 ErrMin= 2.21D-02
 ErrMax= 2.42D-01  0.00D+00 EMaxC= 1.00D-01 BMatC= 5.10D+01 BMatP= 2.28D+00
 IDIUse=2 WtCom= 0.00D+00 WtEn= 1.00D+00
 EnCoef did   100 forward-backward iterations
 Coeff-En:   0.390D+00 0.232D-01 0.402D+00 0.185D+00
 Coeff:      0.390D+00 0.232D-01 0.402D+00 0.185D+00
 Gap=     0.250 Goal=   None    Shift=    0.000
 Gap=     0.033 Goal=   None    Shift=    0.000
 RMSDP=1.70D-03 MaxDP=3.15D-01 DE= 5.98D+00 OVMax= 8.19D-01

 Cycle   5  Pass 1  IDiag  1:
 RMSU=  1.19D-03    CP:  9.94D-01  2.33D+00  1.85D-01  2.19D-01
 E= -5151.18841030601     Delta-E=       -3.472966771735 Rises=F Damp=F
 DIIS: error= 1.66D-01 at cycle   5 NSaved=   5.
 NSaved= 5 IEnMin= 2 EnMin= -5154.19148340116     IErMin= 2 ErrMin= 2.21D-02
 ErrMax= 1.66D-01  0.00D+00 EMaxC= 1.00D-01 BMatC= 2.37D+01 BMatP= 2.28D+00
 IDIUse=2 WtCom= 0.00D+00 WtEn= 1.00D+00
 EnCoef did   100 forward-backward iterations
 Coeff-En:   0.380D+00 0.101D-01 0.361D+00 0.156D+00 0.930D-01
 Coeff:      0.380D+00 0.101D-01 0.361D+00 0.156D+00 0.930D-01
 Gap=     0.217 Goal=   None    Shift=    0.000
 Gap=     0.007 Goal=   None    Shift=    0.000
 RMSDP=1.31D-03 MaxDP=3.39D-01 DE=-3.47D+00 OVMax= 9.86D-01

 Cycle   6  Pass 1  IDiag  1:
 RMSU=  7.76D-04    CP:  9.99D-01  1.52D+00  2.17D-01  3.17D-01  1.61D-01
 E= -5154.63566585377     Delta-E=       -3.447255547761 Rises=F Damp=F
 DIIS: error= 4.24D-02 at cycle   6 NSaved=   6.
 NSaved= 6 IEnMin= 6 EnMin= -5154.63566585377     IErMin= 2 ErrMin= 2.21D-02
 ErrMax= 4.24D-02  0.00D+00 EMaxC= 1.00D-01 BMatC= 2.36D+00 BMatP= 2.28D+00
 IDIUse=3 WtCom= 5.76D-01 WtEn= 4.24D-01
 EnCoef did     4 forward-backward iterations
 Coeff-Com: -0.151D+00 0.461D+00 0.220D+00-0.317D-01 0.907D-01 0.412D+00
 Coeff-En:   0.428D-01 0.000D+00 0.157D+00 0.000D+00 0.140D+00 0.660D+00
 Coeff:     -0.690D-01 0.265D+00 0.194D+00-0.183D-01 0.111D+00 0.517D+00
 Gap=     0.175 Goal=   None    Shift=    0.000
 Gap=     0.031 Goal=   None    Shift=    0.000
 RMSDP=9.01D-04 MaxDP=2.14D-01 DE=-3.45D+00 OVMax= 9.38D-01

 Cycle   7  Pass 1  IDiag  1:
 RMSU=  6.12D-04    CP:  9.97D-01  1.09D+00  3.02D-01  1.89D-01  4.06D-01
                    CP:  3.20D-01
 E= -5154.60982405401     Delta-E=        0.025841799767 Rises=F Damp=F
 DIIS: error= 2.86D-02 at cycle   7 NSaved=   7.
 NSaved= 7 IEnMin= 6 EnMin= -5154.63566585377     IErMin= 2 ErrMin= 2.21D-02
 ErrMax= 2.86D-02  0.00D+00 EMaxC= 1.00D-01 BMatC= 2.34D+00 BMatP= 2.28D+00
 IDIUse=3 WtCom= 7.14D-01 WtEn= 2.86D-01
 Coeff-Com: -0.190D+00 0.302D+00 0.101D+00-0.324D-01 0.156D-01 0.442D+00
 Coeff-Com:  0.361D+00
 Coeff-En:   0.000D+00 0.000D+00 0.000D+00 0.000D+00 0.000D+00 0.510D+00
 Coeff-En:   0.490D+00
 Coeff:     -0.135D+00 0.215D+00 0.722D-01-0.231D-01 0.111D-01 0.461D+00
 Coeff:      0.398D+00
 Gap=     0.216 Goal=   None    Shift=    0.000
 Gap=     0.014 Goal=   None    Shift=    0.000
 RMSDP=7.04D-04 MaxDP=1.79D-01 DE= 2.58D-02 OVMax= 8.11D-01

 Cycle   8  Pass 1  IDiag  1:
 RMSU=  3.79D-04    CP:  9.99D-01  1.32D+00  2.90D-01  2.38D-01  2.50D-01
                    CP:  6.62D-01  2.10D-01
 E= -5154.91380330436     Delta-E=       -0.303979250355 Rises=F Damp=F
 DIIS: error= 1.45D-02 at cycle   8 NSaved=   8.
 NSaved= 8 IEnMin= 8 EnMin= -5154.91380330436     IErMin= 8 ErrMin= 1.45D-02
 ErrMax= 1.45D-02  0.00D+00 EMaxC= 1.00D-01 BMatC= 5.64D-01 BMatP= 2.28D+00
 IDIUse=3 WtCom= 8.55D-01 WtEn= 1.45D-01
 EnCoef did     9 forward-backward iterations
 Coeff-Com: -0.184D+00 0.265D+00 0.600D-01-0.200D-01-0.755D-02 0.301D+00
 Coeff-Com:  0.354D+00 0.232D+00
 Coeff-En:   0.000D+00 0.000D+00 0.000D+00 0.000D+00 0.000D+00 0.276D+00
 Coeff-En:   0.345D+00 0.379D+00
 Coeff:     -0.157D+00 0.226D+00 0.513D-01-0.171D-01-0.646D-02 0.297D+00
 Coeff:      0.353D+00 0.254D+00
 Gap=     0.188 Goal=   None    Shift=    0.000
 Gap=     0.020 Goal=   None    Shift=    0.000
 RMSDP=6.83D-04 MaxDP=2.06D-01 DE=-3.04D-01 OVMax= 9.02D-01

 Cycle   9  Pass 1  IDiag  1:
 RMSU=  4.88D-04    CP:  9.98D-01  1.39D+00  2.75D-01  2.67D-01  2.30D-01
                    CP:  6.61D-01  4.02D-01 -2.11D-01
 E= -5154.68656266604     Delta-E=        0.227240638320 Rises=F Damp=F
 DIIS: error= 2.73D-02 at cycle   9 NSaved=   9.
 NSaved= 9 IEnMin= 8 EnMin= -5154.91380330436     IErMin= 8 ErrMin= 1.45D-02
 ErrMax= 2.73D-02  0.00D+00 EMaxC= 1.00D-01 BMatC= 1.80D+00 BMatP= 5.64D-01
 IDIUse=2 WtCom= 0.00D+00 WtEn= 1.00D+00
 EnCoef did     4 forward-backward iterations
 Coeff-En:   0.000D+00 0.000D+00 0.000D+00 0.000D+00 0.000D+00 0.000D+00
 Coeff-En:   0.134D+00 0.591D+00 0.275D+00
 Coeff:      0.000D+00 0.000D+00 0.000D+00 0.000D+00 0.000D+00 0.000D+00
 Coeff:      0.134D+00 0.591D+00 0.275D+00
 Gap=     0.200 Goal=   None    Shift=    0.000
 Gap=     0.008 Goal=   None    Shift=    0.000
 RMSDP=7.29D-04 MaxDP=2.33D-01 DE= 2.27D-01 OVMax= 9.20D-01

 Cycle  10  Pass 1  IDiag  1:
 RMSU=  2.75D-04    CP:  9.98D-01  1.57D+00  2.49D-01  2.41D-01  4.80D-01
                    CP:  4.19D-01  7.89D-01  2.42D-01  7.21D-04
 E= -5154.66508306678     Delta-E=        0.021479599258 Rises=F Damp=F
 DIIS: error= 3.34D-02 at cycle  10 NSaved=  10.
 NSaved=10 IEnMin= 8 EnMin= -5154.91380330436     IErMin= 8 ErrMin= 1.45D-02
 ErrMax= 3.34D-02  0.00D+00 EMaxC= 1.00D-01 BMatC= 2.07D+00 BMatP= 5.64D-01
 IDIUse=2 WtCom= 0.00D+00 WtEn= 1.00D+00
 EnCoef did     3 forward-backward iterations
 Coeff-En:   0.000D+00 0.000D+00 0.000D+00 0.000D+00 0.000D+00 0.000D+00
 Coeff-En:   0.000D+00 0.545D+00 0.282D+00 0.174D+00
 Coeff:      0.000D+00 0.000D+00 0.000D+00 0.000D+00 0.000D+00 0.000D+00
 Coeff:      0.000D+00 0.545D+00 0.282D+00 0.174D+00
 Gap=     0.184 Goal=   None    Shift=    0.000
 Gap=     0.011 Goal=   None    Shift=    0.000
 RMSDP=4.93D-04 MaxDP=1.56D-01 DE= 2.15D-02 OVMax= 6.14D-01

 Cycle  11  Pass 1  IDiag  1:
 RMSU=  2.35D-04    CP:  9.99D-01  1.22D+00  2.63D-01  2.43D-01  2.71D-01
                    CP:  5.66D-01  5.64D-01  2.56D-01  2.74D-01  1.36D-01
 E= -5154.97716729857     Delta-E=       -0.312084231784 Rises=F Damp=F
 DIIS: error= 9.46D-03 at cycle  11 NSaved=  11.
 NSaved=11 IEnMin=11 EnMin= -5154.97716729857     IErMin=11 ErrMin= 9.46D-03
 ErrMax= 9.46D-03  0.00D+00 EMaxC= 1.00D-01 BMatC= 2.27D-01 BMatP= 5.64D-01
 IDIUse=3 WtCom= 9.05D-01 WtEn= 9.46D-02
 EnCoef did   100 forward-backward iterations
 Coeff-Com: -0.740D-02 0.143D-01-0.499D-02-0.412D-02-0.247D-02-0.118D-01
 Coeff-Com: -0.101D+00 0.384D+00 0.134D+00 0.139D+00 0.460D+00
 Coeff-En:   0.000D+00 0.000D+00 0.000D+00 0.000D+00 0.000D+00 0.220D-02
 Coeff-En:   0.000D+00 0.409D+00 0.123D+00 0.560D-01 0.409D+00
 Coeff:     -0.670D-02 0.130D-01-0.452D-02-0.373D-02-0.223D-02-0.105D-01
 Coeff:     -0.911D-01 0.386D+00 0.133D+00 0.131D+00 0.455D+00
 Gap=     0.182 Goal=   None    Shift=    0.000
 Gap=     0.016 Goal=   None    Shift=    0.000
 RMSDP=1.88D-04 MaxDP=2.98D-02 DE=-3.12D-01 OVMax= 1.37D-01

 Cycle  12  Pass 1  IDiag  1:
 RMSU=  1.05D-04    CP:  9.99D-01  1.32D+00  2.66D-01  2.39D-01  2.81D-01
                    CP:  5.94D-01  4.17D-01  4.96D-01  2.16D-01  2.78D-01
                    CP:  7.47D-01
 E= -5155.01214863589     Delta-E=       -0.034981337325 Rises=F Damp=F
 DIIS: error= 4.22D-03 at cycle  12 NSaved=  12.
 NSaved=12 IEnMin=12 EnMin= -5155.01214863589     IErMin=12 ErrMin= 4.22D-03
 ErrMax= 4.22D-03  0.00D+00 EMaxC= 1.00D-01 BMatC= 3.90D-02 BMatP= 2.27D-01
 IDIUse=3 WtCom= 9.58D-01 WtEn= 4.22D-02
 EnCoef did   100 forward-backward iterations
 Coeff-Com: -0.899D-02 0.990D-02-0.102D-02-0.984D-03 0.115D-02 0.942D-02
 Coeff-Com: -0.623D-01 0.171D+00 0.181D-01 0.273D-02 0.371D+00 0.491D+00
 Coeff-En:   0.000D+00 0.000D+00 0.000D+00 0.000D+00 0.000D+00 0.115D-02
 Coeff-En:   0.000D+00 0.142D+00 0.185D-01 0.000D+00 0.163D+00 0.675D+00
 Coeff:     -0.861D-02 0.948D-02-0.973D-03-0.943D-03 0.110D-02 0.907D-02
 Coeff:     -0.596D-01 0.170D+00 0.181D-01 0.262D-02 0.362D+00 0.498D+00
 Gap=     0.184 Goal=   None    Shift=    0.000
 Gap=     0.017 Goal=   None    Shift=    0.000
 RMSDP=1.19D-04 MaxDP=3.22D-02 DE=-3.50D-02 OVMax= 1.51D-01

 Cycle  13  Pass 1  IDiag  1:
 RMSU=  4.91D-05    CP:  9.99D-01  1.30D+00  2.60D-01  2.50D-01  2.48D-01
                    CP:  6.61D-01  3.42D-01  4.90D-01  2.17D-01  1.43D-01
                    CP:  7.75D-01  4.33D-01
 E= -5155.01689884253     Delta-E=       -0.004750206641 Rises=F Damp=F
 DIIS: error= 2.13D-03 at cycle  13 NSaved=  13.
 NSaved=13 IEnMin=13 EnMin= -5155.01689884253     IErMin=13 ErrMin= 2.13D-03
 ErrMax= 2.13D-03  0.00D+00 EMaxC= 1.00D-01 BMatC= 1.19D-02 BMatP= 3.90D-02
 IDIUse=3 WtCom= 9.79D-01 WtEn= 2.13D-02
 Coeff-Com: -0.601D-02 0.632D-02 0.104D-02 0.119D-04-0.158D-03-0.319D-02
 Coeff-Com: -0.898D-02 0.358D-01-0.113D-01-0.125D-03 0.116D+00 0.333D+00
 Coeff-Com:  0.538D+00
 Coeff-En:   0.000D+00 0.000D+00 0.000D+00 0.000D+00 0.000D+00 0.000D+00
 Coeff-En:   0.000D+00 0.000D+00 0.000D+00 0.000D+00 0.000D+00 0.336D+00
 Coeff-En:   0.664D+00
 Coeff:     -0.588D-02 0.618D-02 0.102D-02 0.117D-04-0.155D-03-0.312D-02
 Coeff:     -0.879D-02 0.350D-01-0.111D-01-0.122D-03 0.113D+00 0.333D+00
 Coeff:      0.540D+00
 Gap=     0.181 Goal=   None    Shift=    0.000
 Gap=     0.017 Goal=   None    Shift=    0.000
 RMSDP=6.56D-05 MaxDP=1.79D-02 DE=-4.75D-03 OVMax= 8.85D-02

 Cycle  14  Pass 1  IDiag  1:
 RMSU=  1.31D-05    CP:  9.99D-01  1.30D+00  2.64D-01  2.44D-01  2.65D-01
                    CP:  6.18D-01  3.95D-01  4.96D-01  2.10D-01  2.12D-01
                    CP:  7.99D-01  6.15D-01  4.78D-01
 E= -5155.01882934296     Delta-E=       -0.001930500424 Rises=F Damp=F
 DIIS: error= 8.78D-04 at cycle  14 NSaved=  14.
 NSaved=14 IEnMin=14 EnMin= -5155.01882934296     IErMin=14 ErrMin= 8.78D-04
 ErrMax= 8.78D-04  0.00D+00 EMaxC= 1.00D-01 BMatC= 1.65D-03 BMatP= 1.19D-02
 IDIUse=3 WtCom= 9.91D-01 WtEn= 8.78D-03
 Coeff-Com: -0.279D-02 0.285D-02 0.290D-03 0.142D-03-0.535D-03-0.126D-02
 Coeff-Com: -0.288D-03 0.977D-02-0.888D-02 0.369D-03 0.315D-01 0.156D+00
 Coeff-Com:  0.409D+00 0.403D+00
 Coeff-En:   0.000D+00 0.000D+00 0.000D+00 0.000D+00 0.000D+00 0.000D+00
 Coeff-En:   0.000D+00 0.000D+00 0.000D+00 0.000D+00 0.000D+00 0.000D+00
 Coeff-En:   0.248D+00 0.752D+00
 Coeff:     -0.276D-02 0.282D-02 0.287D-03 0.141D-03-0.531D-03-0.125D-02
 Coeff:     -0.285D-03 0.968D-02-0.880D-02 0.366D-03 0.313D-01 0.155D+00
 Coeff:      0.408D+00 0.406D+00
 Gap=     0.180 Goal=   None    Shift=    0.000
 Gap=     0.017 Goal=   None    Shift=    0.000
 RMSDP=1.89D-05 MaxDP=4.75D-03 DE=-1.93D-03 OVMax= 2.36D-02

 Cycle  15  Pass 1  IDiag  1:
 RMSU=  5.87D-06    CP:  9.99D-01  1.30D+00  2.63D-01  2.45D-01  2.60D-01
                    CP:  6.29D-01  3.81D-01  4.89D-01  2.16D-01  1.93D-01
                    CP:  7.96D-01  5.99D-01  6.14D-01  4.86D-01
 E= -5155.01911843131     Delta-E=       -0.000289088348 Rises=F Damp=F
 DIIS: error= 3.71D-04 at cycle  15 NSaved=  15.
 NSaved=15 IEnMin=15 EnMin= -5155.01911843131     IErMin=15 ErrMin= 3.71D-04
 ErrMax= 3.71D-04  0.00D+00 EMaxC= 1.00D-01 BMatC= 2.31D-04 BMatP= 1.65D-03
 IDIUse=3 WtCom= 9.96D-01 WtEn= 3.71D-03
 Coeff-Com: -0.124D-02 0.121D-02-0.471D-03 0.109D-03-0.182D-03-0.670D-03
 Coeff-Com:  0.392D-02 0.336D-02-0.528D-02 0.152D-03-0.114D-01 0.189D-01
 Coeff-Com:  0.173D+00 0.289D+00 0.530D+00
 Coeff-En:   0.000D+00 0.000D+00 0.000D+00 0.000D+00 0.000D+00 0.000D+00
 Coeff-En:   0.000D+00 0.000D+00 0.000D+00 0.000D+00 0.000D+00 0.000D+00
 Coeff-En:   0.000D+00 0.103D-01 0.990D+00
 Coeff:     -0.123D-02 0.120D-02-0.469D-03 0.108D-03-0.181D-03-0.668D-03
 Coeff:      0.391D-02 0.334D-02-0.526D-02 0.152D-03-0.113D-01 0.188D-01
 Coeff:      0.173D+00 0.288D+00 0.531D+00
 Gap=     0.180 Goal=   None    Shift=    0.000
 Gap=     0.017 Goal=   None    Shift=    0.000
 RMSDP=8.60D-06 MaxDP=2.10D-03 DE=-2.89D-04 OVMax= 1.12D-02

 Cycle  16  Pass 1  IDiag  1:
 RMSU=  3.05D-06    CP:  9.99D-01  1.30D+00  2.63D-01  2.45D-01  2.61D-01
                    CP:  6.30D-01  3.79D-01  5.04D-01  2.07D-01  1.92D-01
                    CP:  7.88D-01  5.83D-01  6.30D-01  6.19D-01  8.54D-01
 E= -5155.01916114898     Delta-E=       -0.000042717673 Rises=F Damp=F
 DIIS: error= 1.05D-04 at cycle  16 NSaved=  16.
 NSaved=16 IEnMin=16 EnMin= -5155.01916114898     IErMin=16 ErrMin= 1.05D-04
 ErrMax= 1.05D-04  0.00D+00 EMaxC= 1.00D-01 BMatC= 2.21D-05 BMatP= 2.31D-04
 IDIUse=3 WtCom= 9.99D-01 WtEn= 1.05D-03
 Coeff-Com: -0.412D-03 0.492D-03-0.344D-03 0.381D-04-0.251D-04-0.214D-03
 Coeff-Com:  0.140D-02-0.511D-03-0.699D-03 0.166D-03-0.108D-01-0.124D-01
 Coeff-Com:  0.318D-01 0.117D+00 0.308D+00 0.566D+00
 Coeff-En:   0.000D+00 0.000D+00 0.000D+00 0.000D+00 0.000D+00 0.000D+00
 Coeff-En:   0.000D+00 0.000D+00 0.000D+00 0.000D+00 0.000D+00 0.000D+00
 Coeff-En:   0.000D+00 0.000D+00 0.176D+00 0.824D+00
 Coeff:     -0.412D-03 0.491D-03-0.344D-03 0.380D-04-0.250D-04-0.214D-03
 Coeff:      0.140D-02-0.511D-03-0.698D-03 0.166D-03-0.108D-01-0.124D-01
 Coeff:      0.318D-01 0.117D+00 0.308D+00 0.567D+00
 Gap=     0.180 Goal=   None    Shift=    0.000
 Gap=     0.017 Goal=   None    Shift=    0.000
 RMSDP=2.62D-06 MaxDP=4.08D-04 DE=-4.27D-05 OVMax= 3.07D-03

 Cycle  17  Pass 1  IDiag  1:
 RMSU=  1.61D-06    CP:  9.99D-01  1.30D+00  2.63D-01  2.45D-01  2.60D-01
                    CP:  6.31D-01  3.78D-01  5.01D-01  2.09D-01  1.92D-01
                    CP:  7.90D-01  5.84D-01  6.40D-01  6.48D-01  9.37D-01
                    CP:  8.33D-01
 E= -5155.01916420943     Delta-E=       -0.000003060451 Rises=F Damp=F
 DIIS: error= 5.75D-05 at cycle  17 NSaved=  17.
 NSaved=17 IEnMin=17 EnMin= -5155.01916420943     IErMin=17 ErrMin= 5.75D-05
 ErrMax= 5.75D-05  0.00D+00 EMaxC= 1.00D-01 BMatC= 8.10D-06 BMatP= 2.21D-05
 IDIUse=1 WtCom= 1.00D+00 WtEn= 0.00D+00
 Coeff-Com: -0.218D-03 0.282D-03-0.141D-03 0.135D-04-0.151D-04-0.405D-04
 Coeff-Com:  0.281D-03-0.874D-03-0.858D-04 0.311D-03-0.433D-02-0.466D-02
 Coeff-Com:  0.496D-02 0.539D-01 0.127D+00 0.365D+00 0.459D+00
 Coeff:     -0.218D-03 0.282D-03-0.141D-03 0.135D-04-0.151D-04-0.405D-04
 Coeff:      0.281D-03-0.874D-03-0.858D-04 0.311D-03-0.433D-02-0.466D-02
 Coeff:      0.496D-02 0.539D-01 0.127D+00 0.365D+00 0.459D+00
 Gap=     0.180 Goal=   None    Shift=    0.000
 Gap=     0.017 Goal=   None    Shift=    0.000
 RMSDP=1.40D-06 MaxDP=3.13D-04 DE=-3.06D-06 OVMax= 1.71D-03

 Cycle  18  Pass 1  IDiag  1:
 RMSU=  7.43D-07    CP:  9.99D-01  1.30D+00  2.63D-01  2.45D-01  2.60D-01
                    CP:  6.30D-01  3.79D-01  5.00D-01  2.10D-01  1.93D-01
                    CP:  7.91D-01  5.87D-01  6.35D-01  6.65D-01  9.77D-01
                    CP:  9.63D-01  1.08D+00
 E= -5155.01916557834     Delta-E=       -0.000001368910 Rises=F Damp=F
 DIIS: error= 2.49D-05 at cycle  18 NSaved=  18.
 NSaved=18 IEnMin=18 EnMin= -5155.01916557834     IErMin=18 ErrMin= 2.49D-05
 ErrMax= 2.49D-05  0.00D+00 EMaxC= 1.00D-01 BMatC= 1.75D-06 BMatP= 8.10D-06
 IDIUse=1 WtCom= 1.00D+00 WtEn= 0.00D+00
 Coeff-Com: -0.143D-03 0.180D-03-0.170D-04 0.228D-06-0.555D-05 0.890D-04
 Coeff-Com: -0.811D-04-0.329D-03 0.119D-03 0.132D-03-0.251D-03-0.148D-02
 Coeff-Com: -0.137D-01 0.210D-02-0.678D-02 0.117D+00 0.372D+00 0.531D+00
 Coeff:     -0.143D-03 0.180D-03-0.170D-04 0.228D-06-0.555D-05 0.890D-04
 Coeff:     -0.811D-04-0.329D-03 0.119D-03 0.132D-03-0.251D-03-0.148D-02
 Coeff:     -0.137D-01 0.210D-02-0.678D-02 0.117D+00 0.372D+00 0.531D+00
 Gap=     0.180 Goal=   None    Shift=    0.000
 Gap=     0.017 Goal=   None    Shift=    0.000
 RMSDP=9.34D-07 MaxDP=1.46D-04 DE=-1.37D-06 OVMax= 1.21D-03

 Cycle  19  Pass 1  IDiag  1:
 RMSU=  3.94D-07    CP:  9.99D-01  1.30D+00  2.63D-01  2.45D-01  2.60D-01
                    CP:  6.30D-01  3.78D-01  5.00D-01  2.09D-01  1.92D-01
                    CP:  7.90D-01  5.87D-01  6.37D-01  6.83D-01  1.04D+00
                    CP:  1.11D+00  1.39D+00  1.06D+00
 E= -5155.01916592370     Delta-E=       -0.000000345362 Rises=F Damp=F
 DIIS: error= 9.94D-06 at cycle  19 NSaved=  19.
 NSaved=19 IEnMin=19 EnMin= -5155.01916592370     IErMin=19 ErrMin= 9.94D-06
 ErrMax= 9.94D-06  0.00D+00 EMaxC= 1.00D-01 BMatC= 3.77D-07 BMatP= 1.75D-06
 IDIUse=1 WtCom= 1.00D+00 WtEn= 0.00D+00
 Coeff-Com: -0.409D-04 0.506D-04 0.409D-04-0.470D-05-0.458D-05 0.431D-04
 Coeff-Com: -0.820D-04 0.723D-04 0.273D-04 0.701D-04 0.114D-02 0.340D-03
 Coeff-Com: -0.124D-01-0.195D-01-0.518D-01-0.572D-01 0.684D-01 0.314D+00
 Coeff-Com:  0.757D+00
 Coeff:     -0.409D-04 0.506D-04 0.409D-04-0.470D-05-0.458D-05 0.431D-04
 Coeff:     -0.820D-04 0.723D-04 0.273D-04 0.701D-04 0.114D-02 0.340D-03
 Coeff:     -0.124D-01-0.195D-01-0.518D-01-0.572D-01 0.684D-01 0.314D+00
 Coeff:      0.757D+00
 Gap=     0.180 Goal=   None    Shift=    0.000
 Gap=     0.017 Goal=   None    Shift=    0.000
 RMSDP=9.70D-07 MaxDP=1.27D-04 DE=-3.45D-07 OVMax= 1.32D-03

 Cycle  20  Pass 1  IDiag  1:
 RMSU=  2.34D-07    CP:  9.99D-01  1.30D+00  2.63D-01  2.45D-01  2.61D-01
                    CP:  6.30D-01  3.79D-01  5.01D-01  2.09D-01  1.93D-01
                    CP:  7.90D-01  5.88D-01  6.37D-01  7.02D-01  1.10D+00
                    CP:  1.25D+00  1.75D+00  1.49D+00  1.37D+00
 E= -5155.01916604540     Delta-E=       -0.000000121699 Rises=F Damp=F
 DIIS: error= 3.36D-06 at cycle  20 NSaved=  20.
 NSaved=20 IEnMin=20 EnMin= -5155.01916604540     IErMin=20 ErrMin= 3.36D-06
 ErrMax= 3.36D-06  0.00D+00 EMaxC= 1.00D-01 BMatC= 5.54D-08 BMatP= 3.77D-07
 IDIUse=1 WtCom= 1.00D+00 WtEn= 0.00D+00
 Coeff-Com:  0.513D-04-0.628D-04 0.198D-04-0.278D-05-0.371D-05 0.336D-04
 Coeff-Com: -0.225D-04 0.169D-03-0.211D-05 0.223D-04 0.509D-03-0.113D-03
 Coeff-Com: -0.344D-02-0.113D-01-0.236D-01-0.679D-01-0.887D-01 0.167D-02
 Coeff-Com:  0.470D+00 0.723D+00
 Coeff:      0.513D-04-0.628D-04 0.198D-04-0.278D-05-0.371D-05 0.336D-04
 Coeff:     -0.225D-04 0.169D-03-0.211D-05 0.223D-04 0.509D-03-0.113D-03
 Coeff:     -0.344D-02-0.113D-01-0.236D-01-0.679D-01-0.887D-01 0.167D-02
 Coeff:      0.470D+00 0.723D+00
 Gap=     0.180 Goal=   None    Shift=    0.000
 Gap=     0.017 Goal=   None    Shift=    0.000
 RMSDP=7.55D-07 MaxDP=1.01D-04 DE=-1.22D-07 OVMax= 1.04D-03

 Cycle  21  Pass 1  IDiag  1:
 Restarting incremental Fock formation.
 E= -5155.01916606497     Delta-E=       -0.000000019565 Rises=F Damp=F
 DIIS: error= 7.31D-06 at cycle  21 NSaved=  20.
 NSaved=20 IEnMin=20 EnMin= -5155.01916606497     IErMin=19 ErrMin= 3.36D-06
 ErrMax= 7.31D-06  0.00D+00 EMaxC= 1.00D-01 BMatC= 1.20D-07 BMatP= 5.54D-08
 IDIUse=1 WtCom= 1.00D+00 WtEn= 0.00D+00
 Coeff-Com:  0.719D-04-0.884D-04 0.562D-05 0.253D-05-0.461D-04-0.432D-05
 Coeff-Com:  0.202D-04-0.735D-05-0.270D-04 0.123D-03 0.917D-03 0.568D-02
 Coeff-Com:  0.235D-02 0.673D-02-0.301D-01-0.113D+00-0.166D+00-0.921D-02
 Coeff-Com:  0.561D+00 0.741D+00
 Coeff:      0.719D-04-0.884D-04 0.562D-05 0.253D-05-0.461D-04-0.432D-05
 Coeff:      0.202D-04-0.735D-05-0.270D-04 0.123D-03 0.917D-03 0.568D-02
 Coeff:      0.235D-02 0.673D-02-0.301D-01-0.113D+00-0.166D+00-0.921D-02
 Coeff:      0.561D+00 0.741D+00
 Gap=     0.180 Goal=   None    Shift=    0.000
 Gap=     0.017 Goal=   None    Shift=    0.000
 RMSDP=6.73D-07 MaxDP=7.90D-05 DE=-1.96D-08 OVMax= 9.28D-04

 Cycle  22  Pass 1  IDiag  1:
 RMSU=  6.73D-07    CP:  1.00D+00
 E= -5155.01916610381     Delta-E=       -0.000000038839 Rises=F Damp=F
 DIIS: error= 1.46D-06 at cycle  22 NSaved=  20.
 NSaved=20 IEnMin=20 EnMin= -5155.01916610381     IErMin=20 ErrMin= 1.46D-06
 ErrMax= 1.46D-06  0.00D+00 EMaxC= 1.00D-01 BMatC= 1.48D-08 BMatP= 5.54D-08
 IDIUse=1 WtCom= 1.00D+00 WtEn= 0.00D+00
 Coeff-Com:  0.434D-04-0.517D-04-0.215D-05-0.436D-04 0.113D-04-0.117D-04
 Coeff-Com: -0.904D-06-0.222D-04-0.122D-03 0.510D-03 0.500D-02 0.574D-02
 Coeff-Com:  0.136D-01 0.304D-02-0.535D-01-0.121D+00-0.176D+00 0.169D+00
 Coeff-Com:  0.543D+00 0.610D+00
 Coeff:      0.434D-04-0.517D-04-0.215D-05-0.436D-04 0.113D-04-0.117D-04
 Coeff:     -0.904D-06-0.222D-04-0.122D-03 0.510D-03 0.500D-02 0.574D-02
 Coeff:      0.136D-01 0.304D-02-0.535D-01-0.121D+00-0.176D+00 0.169D+00
 Coeff:      0.543D+00 0.610D+00
 Gap=     0.180 Goal=   None    Shift=    0.000
 Gap=     0.017 Goal=   None    Shift=    0.000
 RMSDP=3.64D-07 MaxDP=4.03D-05 DE=-3.88D-08 OVMax= 5.01D-04

 Cycle  23  Pass 1  IDiag  1:
 RMSU=  1.22D-07    CP:  1.00D+00  1.51D+00
 E= -5155.01916611085     Delta-E=       -0.000000007039 Rises=F Damp=F
 DIIS: error= 1.36D-06 at cycle  23 NSaved=  20.
 NSaved=20 IEnMin=20 EnMin= -5155.01916611085     IErMin=20 ErrMin= 1.36D-06
 ErrMax= 1.36D-06  0.00D+00 EMaxC= 1.00D-01 BMatC= 9.02D-09 BMatP= 1.48D-08
 IDIUse=1 WtCom= 1.00D+00 WtEn= 0.00D+00
 Coeff-Com:  0.725D-05-0.599D-05 0.233D-05 0.143D-04 0.102D-04 0.243D-05
 Coeff-Com: -0.185D-04-0.156D-03-0.265D-03 0.661D-03 0.270D-02 0.714D-02
 Coeff-Com:  0.147D-01 0.822D-02-0.122D-01-0.119D+00-0.125D+00 0.690D-01
 Coeff-Com:  0.490D+00 0.665D+00
 Coeff:      0.725D-05-0.599D-05 0.233D-05 0.143D-04 0.102D-04 0.243D-05
 Coeff:     -0.185D-04-0.156D-03-0.265D-03 0.661D-03 0.270D-02 0.714D-02
 Coeff:      0.147D-01 0.822D-02-0.122D-01-0.119D+00-0.125D+00 0.690D-01
 Coeff:      0.490D+00 0.665D+00
 Gap=     0.180 Goal=   None    Shift=    0.000
 Gap=     0.017 Goal=   None    Shift=    0.000
 RMSDP=2.65D-07 MaxDP=3.21D-05 DE=-7.04D-09 OVMax= 3.68D-04

 Cycle  24  Pass 1  IDiag  1:
 RMSU=  9.20D-08    CP:  1.00D+00  1.84D+00  1.95D+00
 E= -5155.01916611399     Delta-E=       -0.000000003140 Rises=F Damp=F
 DIIS: error= 1.96D-06 at cycle  24 NSaved=  20.
 NSaved=20 IEnMin=20 EnMin= -5155.01916611399     IErMin=19 ErrMin= 1.36D-06
 ErrMax= 1.96D-06  0.00D+00 EMaxC= 1.00D-01 BMatC= 6.31D-09 BMatP= 9.02D-09
 IDIUse=1 WtCom= 1.00D+00 WtEn= 0.00D+00
 Coeff-Com: -0.237D-05 0.228D-05-0.715D-05-0.816D-05 0.503D-05 0.916D-05
 Coeff-Com: -0.288D-04-0.125D-03-0.516D-03 0.711D-04 0.892D-03 0.523D-02
 Coeff-Com:  0.172D-01 0.251D-01-0.280D-02-0.129D+00-0.143D+00 0.698D-01
 Coeff-Com:  0.388D+00 0.769D+00
 Coeff:     -0.237D-05 0.228D-05-0.715D-05-0.816D-05 0.503D-05 0.916D-05
 Coeff:     -0.288D-04-0.125D-03-0.516D-03 0.711D-04 0.892D-03 0.523D-02
 Coeff:      0.172D-01 0.251D-01-0.280D-02-0.129D+00-0.143D+00 0.698D-01
 Coeff:      0.388D+00 0.769D+00
 Gap=     0.180 Goal=   None    Shift=    0.000
 Gap=     0.017 Goal=   None    Shift=    0.000
 RMSDP=1.90D-07 MaxDP=2.34D-05 DE=-3.14D-09 OVMax= 2.65D-04

 Cycle  25  Pass 1  IDiag  1:
 RMSU=  7.85D-08    CP:  1.00D+00  2.07D+00  2.45D+00  1.48D+00
 E= -5155.01916611670     Delta-E=       -0.000000002718 Rises=F Damp=F
 DIIS: error= 4.68D-07 at cycle  25 NSaved=  20.
 NSaved=20 IEnMin=20 EnMin= -5155.01916611670     IErMin=20 ErrMin= 4.68D-07
 ErrMax= 4.68D-07  0.00D+00 EMaxC= 1.00D-01 BMatC= 6.57D-10 BMatP= 6.31D-09
 IDIUse=1 WtCom= 1.00D+00 WtEn= 0.00D+00
 Coeff-Com:  0.259D-05-0.113D-04-0.657D-05 0.664D-06 0.137D-04 0.589D-04
 Coeff-Com:  0.400D-04-0.776D-03-0.133D-02-0.290D-02-0.358D-02 0.846D-02
 Coeff-Com:  0.249D-01 0.550D-01-0.322D-01-0.125D+00-0.162D+00-0.370D-01
 Coeff-Com:  0.393D+00 0.883D+00
 Coeff:      0.259D-05-0.113D-04-0.657D-05 0.664D-06 0.137D-04 0.589D-04
 Coeff:      0.400D-04-0.776D-03-0.133D-02-0.290D-02-0.358D-02 0.846D-02
 Coeff:      0.249D-01 0.550D-01-0.322D-01-0.125D+00-0.162D+00-0.370D-01
 Coeff:      0.393D+00 0.883D+00
 Gap=     0.180 Goal=   None    Shift=    0.000
 Gap=     0.017 Goal=   None    Shift=    0.000
 RMSDP=1.54D-07 MaxDP=2.09D-05 DE=-2.72D-09 OVMax= 2.14D-04

 Cycle  26  Pass 1  IDiag  1:
 RMSU=  2.50D-08    CP:  1.00D+00  2.21D+00  2.97D+00  2.04D+00  2.04D+00
 E= -5155.01916611751     Delta-E=       -0.000000000811 Rises=F Damp=F
 DIIS: error= 7.71D-07 at cycle  26 NSaved=  20.
 NSaved=20 IEnMin=20 EnMin= -5155.01916611751     IErMin=19 ErrMin= 4.68D-07
 ErrMax= 7.71D-07  0.00D+00 EMaxC= 1.00D-01 BMatC= 1.28D-09 BMatP= 6.57D-10
 IDIUse=1 WtCom= 1.00D+00 WtEn= 0.00D+00
 Coeff-Com:  0.707D-05 0.312D-05-0.512D-05 0.405D-05 0.681D-04 0.594D-04
 Coeff-Com: -0.703D-03-0.158D-02-0.397D-02-0.682D-02-0.151D-02 0.112D-01
 Coeff-Com:  0.552D-01 0.471D-01-0.334D-01-0.199D+00-0.263D+00-0.628D-01
 Coeff-Com:  0.797D+00 0.662D+00
 Coeff:      0.707D-05 0.312D-05-0.512D-05 0.405D-05 0.681D-04 0.594D-04
 Coeff:     -0.703D-03-0.158D-02-0.397D-02-0.682D-02-0.151D-02 0.112D-01
 Coeff:      0.552D-01 0.471D-01-0.334D-01-0.199D+00-0.263D+00-0.628D-01
 Coeff:      0.797D+00 0.662D+00
 Gap=     0.180 Goal=   None    Shift=    0.000
 Gap=     0.017 Goal=   None    Shift=    0.000
 RMSDP=1.27D-07 MaxDP=1.78D-05 DE=-8.11D-10 OVMax= 1.77D-04

 Cycle  27  Pass 1  IDiag  1:
 RMSU=  6.42D-08    CP:  1.00D+00  2.31D+00  3.00D+00  2.63D+00  2.88D+00
                    CP:  1.53D+00
 E= -5155.01916611805     Delta-E=       -0.000000000531 Rises=F Damp=F
 DIIS: error= 4.61D-07 at cycle  27 NSaved=  20.
 NSaved=20 IEnMin=20 EnMin= -5155.01916611805     IErMin=20 ErrMin= 4.61D-07
 ErrMax= 4.61D-07  0.00D+00 EMaxC= 1.00D-01 BMatC= 7.78D-10 BMatP= 6.57D-10
 IDIUse=1 WtCom= 1.00D+00 WtEn= 0.00D+00
 Coeff-Com:  0.938D-05-0.234D-05-0.131D-06 0.314D-04 0.467D-04-0.127D-03
 Coeff-Com: -0.299D-03-0.131D-02-0.157D-02-0.460D-02-0.774D-02-0.101D-02
 Coeff-Com:  0.603D-01 0.662D-01-0.676D-01-0.215D+00-0.273D+00 0.123D+00
 Coeff-Com:  0.508D+00 0.814D+00
 Coeff:      0.938D-05-0.234D-05-0.131D-06 0.314D-04 0.467D-04-0.127D-03
 Coeff:     -0.299D-03-0.131D-02-0.157D-02-0.460D-02-0.774D-02-0.101D-02
 Coeff:      0.603D-01 0.662D-01-0.676D-01-0.215D+00-0.273D+00 0.123D+00
 Coeff:      0.508D+00 0.814D+00
 Gap=     0.180 Goal=   None    Shift=    0.000
 Gap=     0.017 Goal=   None    Shift=    0.000
 RMSDP=1.14D-07 MaxDP=1.63D-05 DE=-5.31D-10 OVMax= 1.59D-04

 Cycle  28  Pass 1  IDiag  1:
 RMSU=  5.51D-08    CP:  1.00D+00  2.38D+00  3.00D+00  3.00D+00  3.00D+00
                    CP:  2.37D+00  1.95D+00
 E= -5155.01916611862     Delta-E=       -0.000000000571 Rises=F Damp=F
 DIIS: error= 3.47D-07 at cycle  28 NSaved=  20.
 NSaved=20 IEnMin=20 EnMin= -5155.01916611862     IErMin=20 ErrMin= 3.47D-07
 ErrMax= 3.47D-07  0.00D+00 EMaxC= 1.00D-01 BMatC= 3.55D-10 BMatP= 6.57D-10
 IDIUse=1 WtCom= 1.00D+00 WtEn= 0.00D+00
 Coeff-Com:  0.261D-05-0.277D-06 0.194D-05 0.149D-04 0.332D-04 0.324D-03
 Coeff-Com:  0.197D-03 0.173D-02-0.145D-02-0.804D-02-0.203D-01 0.323D-01
 Coeff-Com:  0.551D-01 0.239D-02-0.870D-01-0.204D+00-0.123D+00 0.204D+00
 Coeff-Com:  0.582D+00 0.566D+00
 Coeff:      0.261D-05-0.277D-06 0.194D-05 0.149D-04 0.332D-04 0.324D-03
 Coeff:      0.197D-03 0.173D-02-0.145D-02-0.804D-02-0.203D-01 0.323D-01
 Coeff:      0.551D-01 0.239D-02-0.870D-01-0.204D+00-0.123D+00 0.204D+00
 Coeff:      0.582D+00 0.566D+00
 Gap=     0.180 Goal=   None    Shift=    0.000
 Gap=     0.017 Goal=   None    Shift=    0.000
 RMSDP=5.61D-08 MaxDP=7.92D-06 DE=-5.71D-10 OVMax= 7.83D-05

 Cycle  29  Pass 1  IDiag  1:
 RMSU=  1.58D-08    CP:  1.00D+00  2.42D+00  3.00D+00  3.00D+00  3.00D+00
                    CP:  2.89D+00  2.41D+00  1.64D+00
 E= -5155.01916611872     Delta-E=       -0.000000000098 Rises=F Damp=F
 DIIS: error= 2.33D-07 at cycle  29 NSaved=  20.
 NSaved=20 IEnMin=20 EnMin= -5155.01916611872     IErMin=20 ErrMin= 2.33D-07
 ErrMax= 2.33D-07  0.00D+00 EMaxC= 1.00D-01 BMatC= 1.45D-10 BMatP= 3.55D-10
 IDIUse=1 WtCom= 1.00D+00 WtEn= 0.00D+00
 Coeff-Com: -0.178D-05-0.495D-05 0.796D-05 0.841D-04 0.381D-03 0.632D-03
 Coeff-Com:  0.149D-02 0.466D-03-0.171D-02-0.108D-01 0.822D-03 0.289D-02
 Coeff-Com:  0.245D-01 0.380D-01-0.156D-01-0.142D+00-0.734D-01 0.233D-01
 Coeff-Com:  0.341D+00 0.810D+00
 Coeff:     -0.178D-05-0.495D-05 0.796D-05 0.841D-04 0.381D-03 0.632D-03
 Coeff:      0.149D-02 0.466D-03-0.171D-02-0.108D-01 0.822D-03 0.289D-02
 Coeff:      0.245D-01 0.380D-01-0.156D-01-0.142D+00-0.734D-01 0.233D-01
 Coeff:      0.341D+00 0.810D+00
 Gap=     0.180 Goal=   None    Shift=    0.000
 Gap=     0.017 Goal=   None    Shift=    0.000
 RMSDP=4.08D-08 MaxDP=5.80D-06 DE=-9.82D-11 OVMax= 5.72D-05

 Cycle  30  Pass 1  IDiag  1:
 RMSU=  1.48D-08    CP:  1.00D+00  2.43D+00  3.00D+00  3.00D+00  3.00D+00
                    CP:  3.00D+00  2.70D+00  2.16D+00  1.73D+00
 E= -5155.01916611870     Delta-E=        0.000000000015 Rises=F Damp=F
 DIIS: error= 1.44D-07 at cycle  30 NSaved=  20.
 NSaved=20 IEnMin=19 EnMin= -5155.01916611872     IErMin=20 ErrMin= 1.44D-07
 ErrMax= 1.44D-07  0.00D+00 EMaxC= 1.00D-01 BMatC= 5.53D-11 BMatP= 1.45D-10
 IDIUse=1 WtCom= 1.00D+00 WtEn= 0.00D+00
 Coeff-Com:  0.643D-06-0.588D-05-0.945D-05 0.315D-04 0.292D-03 0.717D-04
 Coeff-Com:  0.127D-02 0.340D-02 0.168D-02-0.181D-01-0.288D-01 0.254D-01
 Coeff-Com:  0.830D-01 0.764D-01-0.351D-01-0.130D+00-0.296D+00-0.131D+00
 Coeff-Com:  0.478D+00 0.971D+00
 Coeff:      0.643D-06-0.588D-05-0.945D-05 0.315D-04 0.292D-03 0.717D-04
 Coeff:      0.127D-02 0.340D-02 0.168D-02-0.181D-01-0.288D-01 0.254D-01
 Coeff:      0.830D-01 0.764D-01-0.351D-01-0.130D+00-0.296D+00-0.131D+00
 Coeff:      0.478D+00 0.971D+00
 Gap=     0.180 Goal=   None    Shift=    0.000
 Gap=     0.017 Goal=   None    Shift=    0.000
 RMSDP=3.76D-08 MaxDP=5.45D-06 DE= 1.46D-11 OVMax= 5.26D-05

 Cycle  31  Pass 1  IDiag  1:
 RMSU=  7.67D-09    CP:  1.00D+00  2.45D+00  3.00D+00  3.00D+00  3.00D+00
                    CP:  3.00D+00  2.94D+00  2.58D+00  2.38D+00  2.38D+00
 E= -5155.01916611877     Delta-E=       -0.000000000069 Rises=F Damp=F
 DIIS: error= 1.26D-07 at cycle  31 NSaved=  20.
 NSaved=20 IEnMin=20 EnMin= -5155.01916611877     IErMin=20 ErrMin= 1.26D-07
 ErrMax= 1.26D-07  0.00D+00 EMaxC= 1.00D-01 BMatC= 4.46D-11 BMatP= 5.53D-11
 IDIUse=1 WtCom= 1.00D+00 WtEn= 0.00D+00
 Coeff-Com: -0.138D-04-0.193D-04-0.168D-03-0.605D-05-0.860D-03 0.135D-03
 Coeff-Com:  0.235D-02 0.730D-02-0.113D-01-0.191D-01 0.314D-02 0.325D-01
 Coeff-Com:  0.664D-01 0.533D-01-0.630D-01-0.231D+00-0.265D+00-0.104D+00
 Coeff-Com:  0.853D+00 0.676D+00
 Coeff:     -0.138D-04-0.193D-04-0.168D-03-0.605D-05-0.860D-03 0.135D-03
 Coeff:      0.235D-02 0.730D-02-0.113D-01-0.191D-01 0.314D-02 0.325D-01
 Coeff:      0.664D-01 0.533D-01-0.630D-01-0.231D+00-0.265D+00-0.104D+00
 Coeff:      0.853D+00 0.676D+00
 Gap=     0.180 Goal=   None    Shift=    0.000
 Gap=     0.017 Goal=   None    Shift=    0.000
 RMSDP=2.58D-08 MaxDP=3.88D-06 DE=-6.91D-11 OVMax= 3.62D-05

 Cycle  32  Pass 1  IDiag  1:
 RMSU=  9.36D-09    CP:  1.00D+00  2.45D+00  3.00D+00  3.00D+00  3.00D+00
                    CP:  3.00D+00  3.00D+00  2.85D+00  2.95D+00  3.00D+00
                    CP:  1.26D+00
 E= -5155.01916611875     Delta-E=        0.000000000022 Rises=F Damp=F
 DIIS: error= 1.01D-07 at cycle  32 NSaved=  20.
 NSaved=20 IEnMin=19 EnMin= -5155.01916611877     IErMin=20 ErrMin= 1.01D-07
 ErrMax= 1.01D-07  0.00D+00 EMaxC= 1.00D-01 BMatC= 2.25D-11 BMatP= 4.46D-11
 IDIUse=1 WtCom= 1.00D+00 WtEn= 0.00D+00
 Coeff-Com:  0.252D-04-0.110D-03-0.974D-04-0.601D-03-0.733D-03-0.847D-03
 Coeff-Com:  0.315D-02 0.242D-02 0.539D-02-0.118D-01-0.245D-01 0.147D-01
 Coeff-Com:  0.554D-01 0.596D-02-0.275D-01-0.102D+00-0.291D+00 0.172D+00
 Coeff-Com:  0.493D+00 0.707D+00
 Coeff:      0.252D-04-0.110D-03-0.974D-04-0.601D-03-0.733D-03-0.847D-03
 Coeff:      0.315D-02 0.242D-02 0.539D-02-0.118D-01-0.245D-01 0.147D-01
 Coeff:      0.554D-01 0.596D-02-0.275D-01-0.102D+00-0.291D+00 0.172D+00
 Coeff:      0.493D+00 0.707D+00
 Gap=     0.180 Goal=   None    Shift=    0.000
 Gap=     0.017 Goal=   None    Shift=    0.000
 RMSDP=1.54D-08 MaxDP=2.31D-06 DE= 2.18D-11 OVMax= 2.15D-05

 Cycle  33  Pass 1  IDiag  1:
 RMSU=  6.56D-09    CP:  1.00D+00  2.46D+00  3.00D+00  3.00D+00  3.00D+00
                    CP:  3.00D+00  3.00D+00  2.98D+00  3.00D+00  3.00D+00
                    CP:  1.43D+00  2.18D+00
 E= -5155.01916611871     Delta-E=        0.000000000040 Rises=F Damp=F
 DIIS: error= 5.21D-08 at cycle  33 NSaved=  20.
 NSaved=20 IEnMin=18 EnMin= -5155.01916611877     IErMin=20 ErrMin= 5.21D-08
 ErrMax= 5.21D-08  0.00D+00 EMaxC= 1.00D-01 BMatC= 9.56D-12 BMatP= 2.25D-11
 IDIUse=1 WtCom= 1.00D+00 WtEn= 0.00D+00
 Coeff-Com: -0.536D-04-0.123D-03-0.152D-03-0.360D-03-0.902D-03 0.257D-03
 Coeff-Com:  0.402D-02 0.826D-02-0.977D-02-0.252D-01-0.398D-02 0.286D-01
 Coeff-Com:  0.220D-01 0.352D-01-0.166D-01-0.192D+00-0.157D+00 0.161D+00
 Coeff-Com:  0.544D+00 0.602D+00
 Coeff:     -0.536D-04-0.123D-03-0.152D-03-0.360D-03-0.902D-03 0.257D-03
 Coeff:      0.402D-02 0.826D-02-0.977D-02-0.252D-01-0.398D-02 0.286D-01
 Coeff:      0.220D-01 0.352D-01-0.166D-01-0.192D+00-0.157D+00 0.161D+00
 Coeff:      0.544D+00 0.602D+00
 Gap=     0.180 Goal=   None    Shift=    0.000
 Gap=     0.017 Goal=   None    Shift=    0.000
 RMSDP=1.12D-08 MaxDP=1.60D-06 DE= 4.00D-11 OVMax= 1.56D-05

 Cycle  34  Pass 1  IDiag  1:
 RMSU=  4.96D-09    CP:  1.00D+00  2.46D+00  3.00D+00  3.00D+00  3.00D+00
                    CP:  3.00D+00  3.00D+00  3.00D+00  3.00D+00  3.00D+00
                    CP:  1.76D+00  3.00D+00  1.71D+00
 E= -5155.01916611888     Delta-E=       -0.000000000171 Rises=F Damp=F
 DIIS: error= 1.71D-08 at cycle  34 NSaved=  20.
 NSaved=20 IEnMin=20 EnMin= -5155.01916611888     IErMin=20 ErrMin= 1.71D-08
 ErrMax= 1.71D-08  0.00D+00 EMaxC= 1.00D-01 BMatC= 1.39D-12 BMatP= 9.56D-12
 IDIUse=1 WtCom= 1.00D+00 WtEn= 0.00D+00
 Coeff-Com: -0.617D-04 0.239D-04-0.275D-03-0.728D-03-0.342D-03 0.464D-02
 Coeff-Com:  0.595D-02-0.784D-02-0.191D-01-0.128D-01 0.142D-01 0.286D-01
 Coeff-Com:  0.512D-01 0.175D-01-0.772D-01-0.201D+00-0.128D-01 0.179D+00
 Coeff-Com:  0.355D+00 0.676D+00
 Coeff:     -0.617D-04 0.239D-04-0.275D-03-0.728D-03-0.342D-03 0.464D-02
 Coeff:      0.595D-02-0.784D-02-0.191D-01-0.128D-01 0.142D-01 0.286D-01
 Coeff:      0.512D-01 0.175D-01-0.772D-01-0.201D+00-0.128D-01 0.179D+00
 Coeff:      0.355D+00 0.676D+00
[...]
     1  O   -0.231905   0.096310  -0.335484
     2  O   -0.232872   0.098378  -0.336762
     3  C    0.231003   0.016580   0.315554
     5  O   -0.229155   0.097451  -0.332949
     6  O   -0.240862   0.082397  -0.344504
     7  C    0.221403   0.012382   0.306655
     9  O   -0.232223   0.093367  -0.334997
    10  O   -0.229196   0.097421  -0.332871
    11  O   -0.241631   0.083308  -0.345123
    12  C    0.221206   0.012513   0.306453
    14  O   -0.232256   0.093353  -0.335110
    15  O   -0.243127   0.077372  -0.344936
    16  C    0.223158   0.015721   0.308119
    18  Fe   0.540264   4.042304   0.871676
    19  O   -0.232984   0.098723  -0.336958
    20  Fe   0.489671   4.044029   0.820934
    21  O   -0.231662   0.096455  -0.335246
    22  O   -0.242747   0.076774  -0.344528
    23  Fe   0.489552   4.043303   0.820576
    24  O   -0.348880   0.571333  -0.579700
    25  C    0.230874   0.016466   0.315428
    27  C    0.222990   0.015593   0.307961
    29  O    0.149746   0.059097   0.132915
    32  O    0.149557   0.059366   0.132819
 
 EQQ=  12.7232193858     EQD=-0.389601588183     EDD= 0.356255128643E-02
 EQQ+QD+DD=  12.3371803489    
 
                          Isotropic Fermi Contact Couplings
        Atom                 a.u.       MegaHertz       Gauss      10(-4) cm-1
     1  O(17)              0.10605      -4.59205      -1.63856      -1.53174
     2  O(17)              0.09765      -4.22824      -1.50874      -1.41039
     3  C(13)             -0.00247      -0.19798      -0.07064      -0.06604
     4  H(1)               0.00747       2.38459       0.85088       0.79541
     5  O(17)              0.10669      -4.61961      -1.64839      -1.54094
     6  O(17)              0.10062      -4.35678      -1.55461      -1.45326
     7  C(13)             -0.00366      -0.29414      -0.10496      -0.09811
     8  H(1)               0.00755       2.41095       0.86029       0.80421
     9  O(17)              0.09519      -4.12191      -1.47080      -1.37492
    10  O(17)              0.10663      -4.61704      -1.64747      -1.54008
    11  O(17)              0.10115      -4.37977      -1.56281      -1.46093
    12  C(13)             -0.00381      -0.30616      -0.10924      -0.10212
    13  H(1)               0.00756       2.41254       0.86086       0.80474
    14  O(17)              0.09560      -4.13937      -1.47703      -1.38074
    15  O(17)              0.09520      -4.12195      -1.47081      -1.37493
    16  C(13)             -0.00452      -0.36264      -0.12940      -0.12096
    17  H(1)               0.00718       2.29396       0.81854       0.76518
    18  Fe(57)             0.65597       6.79585       2.42493       2.26685
    19  O(17)              0.09818      -4.25128      -1.51696      -1.41808
    20  Fe(57)             0.58454       6.05584       2.16088       2.02001
    21  O(17)              0.10580      -4.58104      -1.63463      -1.52807
    22  O(17)              0.09514      -4.11941      -1.46991      -1.37409
    23  Fe(57)             0.58403       6.05051       2.15897       2.01823
    24  O(17)              0.42577     -18.43563      -6.57829      -6.14947
    25  C(13)             -0.00252      -0.20238      -0.07222      -0.06751
    26  H(1)               0.00748       2.38763       0.85197       0.79643
    27  C(13)             -0.00436      -0.35027      -0.12498      -0.11684
    28  H(1)               0.00717       2.29039       0.81727       0.76399
    29  O(17)              0.05138      -2.22485      -0.79388      -0.74213
    30  H(1)              -0.00014      -0.04411      -0.01574      -0.01471
    31  H(1)              -0.00019      -0.06169      -0.02201      -0.02058
    32  O(17)              0.05152      -2.23084      -0.79602      -0.74413
    33  H(1)              -0.00014      -0.04409      -0.01573      -0.01471
    34  H(1)              -0.00018      -0.05759      -0.02055      -0.01921
 --------------------------------------------------------
       Center         ----  Spin Dipole Couplings  ----
                      3XX-RR        3YY-RR        3ZZ-RR
 --------------------------------------------------------
     1   Atom       -0.176060      0.080960      0.095100
     2   Atom       -0.169314      0.096129      0.073185
     3   Atom        0.027226     -0.009502     -0.017724
     4   Atom       -0.011424      0.007088      0.004336
     5   Atom        0.035326     -0.093340      0.058014
     6   Atom        0.073290     -0.107460      0.034170
     7   Atom        0.023470      0.008699     -0.032169
     8   Atom        0.009833     -0.008370     -0.001462
     9   Atom        0.125369     -0.152544      0.027175
    10   Atom       -0.020062     -0.119358      0.139419
    11   Atom       -0.030290     -0.075405      0.105695
    12   Atom       -0.023024      0.029257     -0.006233
    13   Atom       -0.006055     -0.002600      0.008656
    14   Atom       -0.183525      0.113154      0.070371
    15   Atom       -0.161479      0.103421      0.058058
    16   Atom        0.023648      0.000230     -0.023878
    17   Atom       -0.011362      0.010074      0.001288
    18   Atom        0.437496      0.020159     -0.457654
    19   Atom        0.035976     -0.160091      0.124115
    20   Atom       -0.206435      0.773233     -0.566798
    21   Atom       -0.023176     -0.116743      0.139919
    22   Atom        0.085505     -0.106316      0.020811
    23   Atom        0.375473      0.153599     -0.529072
    24   Atom        0.022858      0.007362     -0.030220
    25   Atom       -0.010702      0.016094     -0.005392
    26   Atom       -0.000805     -0.009372      0.010178
    27   Atom        0.012274      0.024131     -0.036405
    28   Atom        0.009858     -0.006145     -0.003713
    29   Atom       -0.157700      0.300365     -0.142665
    30   Atom       -0.040055      0.069835     -0.029780
    31   Atom       -0.020189      0.060225     -0.040036
    32   Atom        0.203549     -0.057677     -0.145872
    33   Atom        0.078635     -0.038253     -0.040383
    34   Atom        0.018725      0.021315     -0.040040
 --------------------------------------------------------
                        XY            XZ            YZ
 --------------------------------------------------------
     1   Atom        0.000571      0.014095      0.239267
     2   Atom        0.061309      0.061266      0.232701
     3   Atom        0.013472     -0.010588      0.077974
     4   Atom        0.004060      0.001248      0.031919
     5   Atom        0.142371      0.215484      0.118925
     6   Atom        0.123556      0.194387      0.088243
     7   Atom       -0.019964      0.060639      0.048847
     8   Atom        0.008060      0.026224      0.014796
     9   Atom       -0.103367      0.227690     -0.081918
    10   Atom        0.103915     -0.194593     -0.145664
    11   Atom        0.115711     -0.161396     -0.149472
    12   Atom       -0.018999     -0.069125     -0.037777
    13   Atom        0.007446     -0.024325     -0.018802
    14   Atom        0.002206      0.007780     -0.250237
    15   Atom       -0.036886      0.034425     -0.218885
    16   Atom       -0.011493     -0.001572     -0.072547
    17   Atom       -0.005005      0.002879     -0.030585
    18   Atom        0.490252     -0.074037     -0.024613
    19   Atom       -0.071589     -0.227841      0.068636
    20   Atom       -0.199069     -0.102295      0.316312
    21   Atom       -0.099403     -0.201882      0.117022
    22   Atom       -0.121948      0.190716     -0.092556
    23   Atom       -0.521447     -0.304593      0.214841
    24   Atom        0.013375      0.005886     -0.019847
    25   Atom        0.023413     -0.069349      0.037714
    26   Atom       -0.004754     -0.028646      0.014050
    27   Atom        0.001570      0.062559     -0.032190
    28   Atom       -0.011190      0.026564     -0.013297
    29   Atom       -0.040099      0.005314     -0.038530
    30   Atom        0.021280     -0.017022     -0.044530
    31   Atom       -0.045334      0.021976     -0.033548
    32   Atom       -0.195130      0.005698     -0.003182
    33   Atom       -0.023133      0.036613      0.000933
    34   Atom       -0.062488      0.019467     -0.030759
 --------------------------------------------------------


 ---------------------------------------------------------------------------------
              Anisotropic Spin Dipole Couplings in Principal Axis System
 ---------------------------------------------------------------------------------

       Atom             a.u.   MegaHertz   Gauss  10(-4) cm-1        Axes

              Baa    -0.1794    12.983     4.633     4.331  0.9480  0.2142 -0.2353
     1 O(17)  Bbb    -0.1482    10.723     3.826     3.577 -0.3175  0.6852 -0.6555
              Bcc     0.3276   -23.706    -8.459    -7.908  0.0209  0.6961  0.7176
 
              Baa    -0.1844    13.342     4.761     4.451  0.9838 -0.0834 -0.1587
     2 O(17)  Bbb    -0.1482    10.724     3.827     3.577  0.0564 -0.6959  0.7159
              Bcc     0.3326   -24.067    -8.588    -8.028  0.1701  0.7132  0.6800
 
              Baa    -0.0941   -12.623    -4.504    -4.210  0.1385 -0.6832  0.7170
     3 C(13)  Bbb     0.0294     3.948     1.409     1.317  0.9879  0.0443 -0.1486
              Bcc     0.0646     8.674     3.095     2.893  0.0697  0.7289  0.6811
 
              Baa    -0.0265   -14.129    -5.042    -4.713  0.1275 -0.6915  0.7110
     4 H(1)   Bbb    -0.0115    -6.121    -2.184    -2.042  0.9889  0.0332 -0.1451
              Bcc     0.0380    20.250     7.226     6.755  0.0767  0.7216  0.6880
 
              Baa    -0.1902    13.760     4.910     4.590  0.6865 -0.6739 -0.2731
     5 O(17)  Bbb    -0.1507    10.901     3.890     3.636 -0.3354 -0.6266  0.7035
              Bcc     0.3408   -24.661    -8.800    -8.226  0.6452  0.3913  0.6562
 
              Baa    -0.1717    12.421     4.432     4.143 -0.5414  0.8260  0.1572
     6 O(17)  Bbb    -0.1328     9.607     3.428     3.205 -0.4577 -0.4463  0.7689
              Bcc     0.3044   -22.028    -7.860    -7.348  0.7053  0.3443  0.6197
 
              Baa    -0.0967   -12.982    -4.632    -4.330 -0.4613 -0.4434  0.7685
     7 C(13)  Bbb     0.0319     4.275     1.526     1.426 -0.4611  0.8598  0.2193
              Bcc     0.0649     8.707     3.107     2.904  0.7580  0.2532  0.6011
 
              Baa    -0.0258   -13.765    -4.912    -4.591 -0.4671 -0.4367  0.7688
     8 H(1)   Bbb    -0.0107    -5.709    -2.037    -1.904 -0.5263  0.8360  0.1551
              Bcc     0.0365    19.473     6.949     6.496  0.7105  0.3322  0.6203
 
              Baa    -0.1876    13.575     4.844     4.528  0.2229  0.9659  0.1321
     9 O(17)  Bbb    -0.1566    11.332     4.044     3.780 -0.6198  0.0359  0.7839
              Bcc     0.3442   -24.907    -8.887    -8.308  0.7524 -0.2566  0.6067
 
              Baa    -0.1896    13.722     4.896     4.577 -0.3017  0.9250  0.2311
    10 O(17)  Bbb    -0.1500    10.857     3.874     3.621  0.7976  0.1121  0.5926
              Bcc     0.3397   -24.579    -8.770    -8.199 -0.5223 -0.3631  0.7716
 
              Baa    -0.1729    12.509     4.464     4.173 -0.5033  0.8485  0.1637
    11 O(17)  Bbb    -0.1332     9.640     3.440     3.216  0.6997  0.2890  0.6534
              Bcc     0.3061   -22.149    -7.903    -7.388 -0.5071 -0.4434  0.7391
 
              Baa    -0.0967   -12.972    -4.629    -4.327  0.6928  0.3011  0.6553
    12 C(13)  Bbb     0.0319     4.280     1.527     1.428 -0.5602  0.7969  0.2261
              Bcc     0.0648     8.692     3.101     2.899 -0.4541 -0.5237  0.7208
 
              Baa    -0.0258   -13.779    -4.917    -4.596  0.6895  0.3092  0.6550
    13 H(1)   Bbb    -0.0107    -5.733    -2.046    -1.912 -0.5235  0.8377  0.1555
              Bcc     0.0366    19.512     6.962     6.508 -0.5006 -0.4501  0.7394
 
              Baa    -0.1855    13.426     4.791     4.478  0.9639 -0.1751 -0.2005
    14 O(17)  Bbb    -0.1574    11.389     4.064     3.799  0.2662  0.6534  0.7087
              Bcc     0.3429   -24.815    -8.855    -8.277 -0.0069  0.7365 -0.6764
 
              Baa    -0.1669    12.080     4.310     4.029  0.9938  0.0588 -0.0949
    15 O(17)  Bbb    -0.1393    10.079     3.596     3.362  0.0309  0.6720  0.7399
              Bcc     0.3062   -22.159    -7.907    -7.391 -0.1072  0.7382 -0.6660
 
              Baa    -0.0860   -11.547    -4.120    -3.852  0.0787  0.6477  0.7578
    16 C(13)  Bbb     0.0228     3.059     1.091     1.020  0.9778  0.0981 -0.1854
              Bcc     0.0633     8.488     3.029     2.831 -0.1944  0.7556 -0.6256
 
              Baa    -0.0253   -13.503    -4.818    -4.504  0.0818  0.6584  0.7482
    17 H(1)   Bbb    -0.0119    -6.367    -2.272    -2.124  0.9899  0.0336 -0.1378
              Bcc     0.0372    19.870     7.090     6.628 -0.1159  0.7520 -0.6490
 
              Baa    -0.4648    -8.048    -2.872    -2.684  0.1197 -0.0707  0.9903
    18 Fe(57) Bbb    -0.3014    -5.219    -1.862    -1.741 -0.5398  0.8325  0.1247
              Bcc     0.7663    13.266     4.734     4.425  0.8332  0.5495 -0.0615
 
              Baa    -0.1838    13.302     4.747     4.437  0.3753  0.9241  0.0717
    19 O(17)  Bbb    -0.1480    10.710     3.821     3.572  0.6821 -0.3277  0.6537
              Bcc     0.3318   -24.012    -8.568    -8.010 -0.6276  0.1964  0.7533
 
              Baa    -0.6455   -11.175    -3.988    -3.728  0.1367 -0.1973  0.9708
    20 Fe(57) Bbb    -0.2417    -4.184    -1.493    -1.396  0.9713  0.2193 -0.0923
              Bcc     0.8871    15.359     5.480     5.123 -0.1947  0.9555  0.2216
 
              Baa    -0.1810    13.097     4.673     4.369  0.6369  0.7611  0.1231
    21 O(17)  Bbb    -0.1475    10.672     3.808     3.560  0.5520 -0.5616  0.6164
              Bcc     0.3285   -23.768    -8.481    -7.928 -0.5383  0.3246  0.7778
 
              Baa    -0.1656    11.979     4.274     3.996  0.4380  0.8990 -0.0018
    22 O(17)  Bbb    -0.1381     9.992     3.565     3.333 -0.5385  0.2640  0.8002
              Bcc     0.3036   -21.971    -7.840    -7.329  0.7198 -0.3495  0.5998
 
              Baa    -0.6278   -10.869    -3.878    -3.626  0.2375 -0.1069  0.9655
    23 Fe(57) Bbb    -0.2670    -4.623    -1.650    -1.542  0.6108  0.7893 -0.0628
              Bcc     0.8948    15.492     5.528     5.168  0.7553 -0.6046 -0.2528
 
              Baa    -0.0406     2.939     1.049     0.980 -0.1706  0.4169  0.8928
    24 O(17)  Bbb     0.0096    -0.692    -0.247    -0.231 -0.5330  0.7230 -0.4395
              Bcc     0.0310    -2.246    -0.802    -0.749  0.8287  0.5508 -0.0988
 
              Baa    -0.0943   -12.658    -4.517    -4.222  0.6527 -0.3651  0.6638
    25 C(13)  Bbb     0.0296     3.974     1.418     1.326  0.4671  0.8838  0.0268
              Bcc     0.0647     8.684     3.099     2.897 -0.5965  0.2925  0.7474
 
              Baa    -0.0265   -14.133    -5.043    -4.714  0.6665 -0.3536  0.6563
    26 H(1)   Bbb    -0.0115    -6.116    -2.182    -2.040  0.4527  0.8914  0.0205
              Bcc     0.0380    20.249     7.225     6.754 -0.5923  0.2834  0.7543
 
              Baa    -0.0862   -11.561    -4.125    -3.856 -0.5227  0.2457  0.8163
    27 C(13)  Bbb     0.0227     3.049     1.088     1.017  0.5026  0.8623  0.0623
              Bcc     0.0634     8.512     3.037     2.839  0.6886 -0.4428  0.5742
 
              Baa    -0.0253   -13.494    -4.815    -4.501 -0.5314  0.2513  0.8090
    28 H(1)   Bbb    -0.0119    -6.347    -2.265    -2.117  0.4442  0.8958  0.0136
              Bcc     0.0372    19.841     7.080     6.618  0.7213 -0.3666  0.5877
 
              Baa    -0.1614    11.681     4.168     3.896  0.9893  0.0755 -0.1252
    29 O(17)  Bbb    -0.1458    10.548     3.764     3.518  0.1178  0.0959  0.9884
              Bcc     0.3072   -22.229    -7.932    -7.415 -0.0866  0.9925 -0.0860
 
              Baa    -0.0542   -28.906   -10.314    -9.642  0.6597  0.1512  0.7362
    30 H(1)   Bbb    -0.0378   -20.160    -7.193    -6.725  0.7262 -0.3805 -0.5726
              Bcc     0.0920    49.065    17.508    16.366  0.1936  0.9123 -0.3608
 
              Baa    -0.0545   -29.071   -10.373    -9.697 -0.4685  0.0723  0.8805
    31 H(1)   Bbb    -0.0380   -20.271    -7.233    -6.762  0.7850  0.4912  0.3774
              Bcc     0.0925    49.342    17.607    16.459 -0.4052  0.8680 -0.2870
 
              Baa    -0.1619    11.713     4.180     3.907  0.4709  0.8821  0.0077
    32 O(17)  Bbb    -0.1460    10.562     3.769     3.523 -0.0163 -0.0001  0.9999
              Bcc     0.3078   -22.275    -7.948    -7.430  0.8820 -0.4710  0.0144
 
              Baa    -0.0547   -29.187   -10.415    -9.736 -0.3088 -0.4807  0.8207
    33 H(1)   Bbb    -0.0380   -20.275    -7.235    -6.763  0.0111  0.8610  0.5085
              Bcc     0.0927    49.463    17.650    16.499  0.9511 -0.1661  0.2605
 
              Baa    -0.0542   -28.939   -10.326    -9.653  0.2301  0.5241  0.8200
    34 H(1)   Bbb    -0.0379   -20.222    -7.216    -6.745  0.7106  0.4852 -0.5096
              Bcc     0.0921    49.161    17.542    16.398 -0.6649  0.6999 -0.2608
 

 ---------------------------------------------------------------------------------

 No NMR shielding tensors so no spin-rotation constants.
 Leave Link  601 at Wed Feb  1 05:54:37 2023, MaxMem= 14763950080 cpu:              20.5 elap:              12.2
 (Enter /software/commercial/gaussian/g16/AVX2/g16/l9999.exe)
 Unable to Open any file for archive entry.
 1\1\GINC-NODE0926\FOpt\UM06L\Gen\C6H10Fe3O15(15)\SVICCHI\01-Feb-2023\0
 \\#p opt=(cartesian,maxcycle=500) gen um06l int=grid=ultrafine scf=(xq
 c,intrep,maxconventionalcycle=150) pop=(hirshfeld) nosymm\\FeFeFe-A-2x
 H2O\\0,15\O,1.4383756075,-2.1531350269,-1.7144152824\O,-0.787909548,-2
 .2482148396,-1.3790025307\C,0.2832393498,-2.5794985102,-1.9408257513\H
 ,0.1934578873,-3.3394399819,-2.7360423793\O,1.9677384386,2.210023747,1
 .3861475762\O,3.200333454,0.3593632587,1.0267054563\C,2.9517769894,1.4
 615657521,1.5726821679\H,3.693582119,1.8157214027,2.310605378\O,-2.269
 2270524,0.1382841516,-1.1729250973\O,2.7806872285,0.4543441879,-1.8258
 566778\O,1.6517774422,2.3721092087,-1.4740950851\C,2.4726766723,1.6395
 446053,-2.0780798844\H,2.987970972,2.0981033207,-2.9409428902\O,-0.446
 0294882,-2.3034512626,1.4242823375\O,1.7869949508,-2.2562379742,1.1306
 289069\C,0.7275208808,-2.6724700601,1.6563971576\H,0.8395720067,-3.460
 3785045,2.4223056003\Fe,-1.0694666651,-0.8954962386,0.099432832\O,-1.9
 88686276,0.0469857445,1.6356642487\Fe,0.3718250579,2.0194916046,0.1456
 305073\O,-0.9403838628,2.0405457959,1.7013076597\O,-1.303195883,2.1729
 448435,-1.1409021736\Fe,2.1459218529,-0.8046063515,-0.3635594107\O,0.4
 909384561,0.1135853277,-0.0431306581\C,-1.771980323,1.1928022792,2.097
 3827076\H,-2.3906182181,1.4867510085,2.9627406106\C,-2.169599944,1.341
 8499766,-1.5025425621\H,-2.9403579301,1.7129267968,-2.2012861243\O,0.1
 739677673,4.1783078228,-0.1198013066\H,0.8521747989,4.304909409,-0.799
 4004693\H,-0.6618578078,4.183558449,-0.6097607621\O,4.0649643291,-1.83
 99008854,-0.2543938637\H,4.5233525658,-1.2163791069,0.3284289089\H,3.8
 058721719,-2.5683909505,0.3291008534\\Version=ES64L-G16RevC.02\HF=-515
 5.0194667\S2=56.065834\S2-1=0.\S2A=56.000311\RMSD=3.301e-09\RMSF=1.590
 e-05\Dipole=0.7071482,0.4521025,-0.0608151\Quadrupole=1.1444335,3.0380
 311,-4.1824646,-4.384821,4.9610738,-8.0363181\PG=C01 [X(C6H10Fe3O15)]\
 \@
 The archive entry for this job was punched.


 WE LEARN WISDOM FROM FAILURE MUCH MORE THAN FROM SUCCESS.
 WE DISCOVER WHAT WILL DO BY FINDING OUT WHAT WILL NOT DO...
 AND HE WHO NEVER MADE A MISTAKE NEVER MADE A DISCOVERY
 Job cpu time:       2 days 23 hours 43 minutes  2.5 seconds.
 Elapsed time:       1 days 12 hours 57 minutes 57.0 seconds.
 File lengths (MBytes):  RWF=    714 Int=      0 D2E=      0 Chk=     68 Scr=      1
 Normal termination of Gaussian 16 at Wed Feb  1 05:54:43 2023.
