 Entering Gaussian System, Link 0=g16
 Input=FeFeFe-A-2xH2O-freq.gjf
 Output=FeFeFe-A-2xH2O-freq.log
 AtFile(1): /zfs/curium/svicchi/00-MOF/01-Gaussian/zw-basis-set/def2-TZVP/H.gbs
            !----------------------------------------------------------------------
            ! Basis Set Exchange
            ! Version v0.9
            ! https://www.basissetexchange.org
            !----------------------------------------------------------------------
            !   Basis set: def2-TZVP
            ! Description: def2-TZVP
            !        Role: orbital
            !     Version: 1  (Data from Turbomole 7.3)
            !----------------------------------------------------------------------
            H     0
            S    3   1.00
                 34.0613410              0.60251978D-02
                  5.1235746              0.45021094D-01
                  1.1646626              0.20189726
            S    1   1.00
                  0.32723041             1.0000000
            S    1   1.00
                  0.10307241             1.0000000
            P    1   1.00
                  0.8000000              1.0000000
 AtFile(1): /zfs/curium/svicchi/00-MOF/01-Gaussian/zw-basis-set/def2-TZVP/O.gbs
            !----------------------------------------------------------------------
            ! Basis Set Exchange
            ! Version v0.9
            ! https://www.basissetexchange.org
            !----------------------------------------------------------------------
            !   Basis set: def2-TZVP
            ! Description: def2-TZVP
            !        Role: orbital
            !     Version: 1  (Data from Turbomole 7.3)
            !----------------------------------------------------------------------
            O     0
            S    6   1.00
              27032.3826310              0.21726302465D-03
               4052.3871392              0.16838662199D-02
                922.32722710             0.87395616265D-02
                261.24070989             0.35239968808D-01
                 85.354641351            0.11153519115
                 31.035035245            0.25588953961
            S    2   1.00
                 12.260860728            0.39768730901
                  4.9987076005           0.24627849430
            S    1   1.00
                  1.1703108158           1.0000000
            S    1   1.00
                  0.46474740994          1.0000000
            S    1   1.00
                  0.18504536357          1.0000000
            P    4   1.00
                 63.274954801            0.60685103418D-02
                 14.627049379            0.41912575824D-01
                  4.4501223456           0.16153841088
                  1.5275799647           0.35706951311
            P    1   1.00
                  0.52935117943           .44794207502
            P    1   1.00
                  0.17478421270           .24446069663
            D    1   1.00
                  2.31400000             1.0000000
            D    1   1.00
                  0.64500000             1.0000000
            F    1   1.00
                  1.42800000             1.0000000
 AtFile(1): /zfs/curium/svicchi/00-MOF/01-Gaussian/zw-basis-set/def2-TZVP/C.gbs
            !----------------------------------------------------------------------
            ! Basis Set Exchange
            ! Version v0.9
            ! https://www.basissetexchange.org
            !----------------------------------------------------------------------
            !   Basis set: def2-TZVP
            ! Description: def2-TZVP
            !        Role: orbital
            !     Version: 1  (Data from Turbomole 7.3)
            !----------------------------------------------------------------------
            C     0
            S    6   1.00
              13575.3496820              0.22245814352D-03
               2035.2333680              0.17232738252D-02
                463.22562359             0.89255715314D-02
                131.20019598             0.35727984502D-01
                 42.853015891            0.11076259931
                 15.584185766            0.24295627626
            S    2   1.00
                  6.2067138508           0.41440263448
                  2.5764896527           0.23744968655
            S    1   1.00
                  0.57696339419          1.0000000
            S    1   1.00
                  0.22972831358          1.0000000
            S    1   1.00
                  0.95164440028D-01      1.0000000
            P    4   1.00
                 34.697232244            0.53333657805D-02
                  7.9582622826           0.35864109092D-01
                  2.3780826883           0.14215873329
                  0.81433208183          0.34270471845
            P    1   1.00
                  0.28887547253           .46445822433
            P    1   1.00
                  0.10056823671           .24955789874
            D    1   1.00
                  1.09700000             1.0000000
            D    1   1.00
                  0.31800000             1.0000000
            F    1   1.00
                  0.76100000             1.0000000
 AtFile(1): /zfs/curium/svicchi/00-MOF/01-Gaussian/zw-basis-set/def2-TZVP/Fe.gbs
            !----------------------------------------------------------------------
            ! Basis Set Exchange
            ! Version v0.9
            ! https://www.basissetexchange.org
            !----------------------------------------------------------------------
            !   Basis set: def2-TZVP
            ! Description: def2-TZVP
            !        Role: orbital
            !     Version: 1  (Data from Turbomole 7.3)
            !----------------------------------------------------------------------
            Fe     0
            S    8   1.00
             300784.8463700              0.22806273096D-03
              45088.9705570              0.17681788761D-02
              10262.5163170              0.91927083490D-02
               2905.2897293              0.37355495807D-01
                946.11487137             0.12151108426
                339.87832894             0.28818881468
                131.94425588             0.41126612677
                 52.111494077            0.21518583573
            S    4   1.00
                329.48839267            -0.24745216477D-01
                101.92332739            -0.11683089050
                 16.240462745            0.55293621136
                  6.8840675801           0.53601640182
            S    2   1.00
                 10.470693782           -0.22912708577
                  1.7360039648           0.71159319984
            S    1   1.00
                  0.72577288979          1.0000000
            S    1   1.00
                  0.11595528203          1.0000000
            S    1   1.00
                  0.41968227746D-01      1.0000000
            P    6   1.00
               1585.3959970              0.23793960179D-02
                375.38006499             0.19253154755D-01
                120.31816501             0.90021836536D-01
                 44.788749031            0.25798172356
                 17.829278584            0.41492649744
                  7.2247153786           0.24207474784
            P    3   1.00
                 28.143219756           -0.29041755152D-01
                  3.8743241412           0.55312260343
                  1.5410752281           0.96771136842
            P    1   1.00
                  0.58285615250          1.0000000
            P    1   1.00
                  0.1349150              1.0000000
            D    4   1.00
                 61.996675034            0.11971972255D-01
                 17.873732552            0.73210135410D-01
                  6.2744782934           0.23103094314
                  2.3552337175           0.39910706494
            D    1   1.00
                  0.85432239901           .41391589765
            D    1   1.00
                  0.27869254413           .21909269782
            D    1   1.00
                  0.0910000              1.0000000
            F    1   1.00
                  1.5980000              1.0000000
 Initial command:
 /software/commercial/gaussian/g16/AVX2/g16/l1.exe "/scratch1/svicchi/G09-83844.pbs02/Gau-3605973.inp" -scrdir="/scratch1/svicchi/G09-83844.pbs02/"
 Entering Link 1 = /software/commercial/gaussian/g16/AVX2/g16/l1.exe PID=   3605974.
  
 Copyright (c) 1988-2021, Gaussian, Inc.  All Rights Reserved.
  
 This is part of the Gaussian(R) 16 program.  It is based on
 the Gaussian(R) 09 system (copyright 2009, Gaussian, Inc.),
 the Gaussian(R) 03 system (copyright 2003, Gaussian, Inc.),
 the Gaussian(R) 98 system (copyright 1998, Gaussian, Inc.),
 the Gaussian(R) 94 system (copyright 1995, Gaussian, Inc.),
 the Gaussian 92(TM) system (copyright 1992, Gaussian, Inc.),
 the Gaussian 90(TM) system (copyright 1990, Gaussian, Inc.),
 the Gaussian 88(TM) system (copyright 1988, Gaussian, Inc.),
 the Gaussian 86(TM) system (copyright 1986, Carnegie Mellon
 University), and the Gaussian 82(TM) system (copyright 1983,
 Carnegie Mellon University). Gaussian is a federally registered
 trademark of Gaussian, Inc.
  
 This software contains proprietary and confidential information,
 including trade secrets, belonging to Gaussian, Inc.
  
 This software is provided under written license and may be
 used, copied, transmitted, or stored only in accord with that
 written license.
  
 The following legend is applicable only to US Government
 contracts under FAR:
  
                    RESTRICTED RIGHTS LEGEND
  
 Use, reproduction and disclosure by the US Government is
 subject to restrictions as set forth in subparagraphs (a)
 and (c) of the Commercial Computer Software - Restricted
 Rights clause in FAR 52.227-19.
  
 Gaussian, Inc.
 340 Quinnipiac St., Bldg. 40, Wallingford CT 06492
  
  
 ---------------------------------------------------------------
 Warning -- This program may not be used in any manner that
 competes with the business of Gaussian, Inc. or will provide
 assistance to any competitor of Gaussian, Inc.  The licensee
 of this program is prohibited from giving any competitor of
 Gaussian, Inc. access to this program.  By using this program,
 the user acknowledges that Gaussian, Inc. is engaged in the
 business of creating and licensing software in the field of
 computational chemistry and represents and warrants to the
 licensee that it is not a competitor of Gaussian, Inc. and that
 it will not use this program in any manner prohibited above.
 ---------------------------------------------------------------
  

 Cite this work as:
 Gaussian 16, Revision C.02,
 M. J. Frisch, G. W. Trucks, H. B. Schlegel, G. E. Scuseria, 
 M. A. Robb, J. R. Cheeseman, G. Scalmani, V. Barone, 
 G. A. Petersson, H. Nakatsuji, X. Li, M. Caricato, A. V. Marenich, 
 J. Bloino, B. G. Janesko, R. Gomperts, B. Mennucci, H. P. Hratchian, 
 J. V. Ortiz, A. F. Izmaylov, J. L. Sonnenberg, D. Williams-Young, 
 F. Ding, F. Lipparini, F. Egidi, J. Goings, B. Peng, A. Petrone, 
 T. Henderson, D. Ranasinghe, V. G. Zakrzewski, J. Gao, N. Rega, 
 G. Zheng, W. Liang, M. Hada, M. Ehara, K. Toyota, R. Fukuda, 
 J. Hasegawa, M. Ishida, T. Nakajima, Y. Honda, O. Kitao, H. Nakai, 
 T. Vreven, K. Throssell, J. A. Montgomery, Jr., J. E. Peralta, 
 F. Ogliaro, M. J. Bearpark, J. J. Heyd, E. N. Brothers, K. N. Kudin, 
 V. N. Staroverov, T. A. Keith, R. Kobayashi, J. Normand, 
 K. Raghavachari, A. P. Rendell, J. C. Burant, S. S. Iyengar, 
 J. Tomasi, M. Cossi, J. M. Millam, M. Klene, C. Adamo, R. Cammi, 
 J. W. Ochterski, R. L. Martin, K. Morokuma, O. Farkas, 
 J. B. Foresman, and D. J. Fox, Gaussian, Inc., Wallingford CT, 2019.
 
 ******************************************
 Gaussian 16:  ES64L-G16RevC.02  7-Dec-2021
                 1-Feb-2023 
 ******************************************
 %NProcShared=2
 Will use up to    2 processors via shared memory.
 %mem=110gb
 %chk=/scratch1/svicchi/G09-83844.pbs02/02-freq/FeFeFe-A-2xH2O-freq.chk
 ----------------------------------------------------------------------
 #p freq=raman scale=0.967 guess=read geom=allcheck gen um06l int=grid=
 ultrafine scf=(xqc,intrep,maxconventionalcycle=150) pop=(hirshfeld) no
 symm
 ----------------------------------------------------------------------
 1/10=4,29=7,30=1,38=1,114=967000/1,3;
 2/12=2,15=1,40=1/2;
 3/5=7,11=2,14=-4,25=1,30=1,71=2,74=-53,75=-5,116=2,140=1/1,2,3;
 4/5=1/1;
 5/5=2,8=3,13=1,17=20,38=6,85=150,98=1/2,8;
 8/6=4,10=90,11=11/1;
 10/13=10,15=4,31=1/2;
 11/6=3,8=1,9=11,15=111,16=1,31=1/1,2,10;
 10/6=1,31=1/2;
 6/7=2,8=2,9=2,10=2,28=1,79=1/1;
 7/8=1,10=1,25=1,30=1/1,2,3,16;
 1/10=4,30=1/3;
 99//99;
 Leave Link    1 at Wed Feb  1 07:24:17 2023, MaxMem= 14763950080 cpu:               0.0 elap:               0.7
 (Enter /software/commercial/gaussian/g16/AVX2/g16/l101.exe)
 Structure from the checkpoint file:  "/scratch1/svicchi/G09-83844.pbs02/02-freq/FeFeFe-A-2xH2O-freq.chk"
 --------------
 FeFeFe-A-2xH2O
 --------------
 Charge =  0 Multiplicity =15
 No Z-Matrix found in chk file; cartesian coordinates used.
  O                                                 1.438375607494     -2.153135026876     -1.714415282398
  O                                                -0.787909547956     -2.248214839574     -1.379002530667
  C                                                 0.283239349776     -2.579498510180     -1.940825751321
  H                                                 0.193457887296     -3.339439981877     -2.736042379323
  O                                                 1.967738438563      2.210023746958      1.386147576178
  O                                                 3.200333453996      0.359363258728      1.026705456304
  C                                                 2.951776989359      1.461565752136      1.572682167893
  H                                                 3.693582118996      1.815721402673      2.310605378002
  O                                                -2.269227052383      0.138284151559     -1.172925097287
  O                                                 2.780687228495      0.454344187906     -1.825856677758
  O                                                 1.651777442174      2.372109208736     -1.474095085127
  C                                                 2.472676672339      1.639544605325     -2.078079884435
  H                                                 2.987970972007      2.098103320735     -2.940942890205
  O                                                -0.446029488208     -2.303451262574      1.424282337467
  O                                                 1.786994950819     -2.256237974227      1.130628906904
  C                                                 0.727520880770     -2.672470060062      1.656397157639
  H                                                 0.839572006670     -3.460378504529      2.422305600333
  Fe                                               -1.069466665094     -0.895496238644      0.099432832015
  O                                                -1.988686276010      0.046985744483      1.635664248734
  Fe                                                0.371825057872      2.019491604624      0.145630507298
  O                                                -0.940383862834      2.040545795933      1.701307659750
  O                                                -1.303195882954      2.172944843466     -1.140902173583
  Fe                                                2.145921852882     -0.804606351524     -0.363559410738
  O                                                 0.490938456085      0.113585327735     -0.043130658110
  C                                                -1.771980323042      1.192802279217      2.097382707584
  H                                                -2.390618218133      1.486751008498      2.962740610596
  C                                                -2.169599944050      1.341849976594     -1.502542562055
  H                                                -2.940357930124      1.712926796760     -2.201286124349
  O                                                 0.173967767304      4.178307822822     -0.119801306582
  H                                                 0.852174798944      4.304909409035     -0.799400469310
  H                                                -0.661857807835      4.183558448965     -0.609760762089
  O                                                 4.064964329056     -1.839900885414     -0.254393863651
  H                                                 4.523352565814     -1.216379106887      0.328428908851
  H                                                 3.805872171912     -2.568390950524      0.329100853436
 Recover connectivity data from disk.
 ITRead=  0  0  0  0  0  0  0  0  0  0  0  0  0  0  0  0  0  0  0  0
 ITRead=  0  0  0  0  0  0  0  0  0  0  0  0  0  0
 MicOpt= -1 -1 -1 -1 -1 -1 -1 -1 -1 -1 -1 -1 -1 -1 -1 -1 -1 -1 -1 -1
 MicOpt= -1 -1 -1 -1 -1 -1 -1 -1 -1 -1 -1 -1 -1 -1
 NAtoms=     34 NQM=       34 NQMF=       0 NMMI=      0 NMMIF=      0
                NMic=       0 NMicF=      0.
                    Isotopes and Nuclear Properties:
 (Nuclear quadrupole moments (NQMom) in fm**2, nuclear magnetic moments (NMagM)
  in nuclear magnetons)

  Atom         1           2           3           4           5           6           7           8           9          10
 IAtWgt=          16          16          12           1          16          16          12           1          16          16
 AtmWgt=  15.9949146  15.9949146  12.0000000   1.0078250  15.9949146  15.9949146  12.0000000   1.0078250  15.9949146  15.9949146
 NucSpn=           0           0           0           1           0           0           0           1           0           0
 AtZEff=   5.6000000   5.6000000   3.6000000   1.0000000   5.6000000   5.6000000   3.6000000   1.0000000   5.6000000   5.6000000
 NQMom=    0.0000000   0.0000000   0.0000000   0.0000000   0.0000000   0.0000000   0.0000000   0.0000000   0.0000000   0.0000000
 NMagM=    0.0000000   0.0000000   0.0000000   2.7928460   0.0000000   0.0000000   0.0000000   2.7928460   0.0000000   0.0000000
 AtZNuc=   8.0000000   8.0000000   6.0000000   1.0000000   8.0000000   8.0000000   6.0000000   1.0000000   8.0000000   8.0000000

  Atom        11          12          13          14          15          16          17          18          19          20
 IAtWgt=          16          12           1          16          16          12           1          56          16          56
 AtmWgt=  15.9949146  12.0000000   1.0078250  15.9949146  15.9949146  12.0000000   1.0078250  55.9349393  15.9949146  55.9349393
 NucSpn=           0           0           1           0           0           0           1           0           0           0
 AtZEff=   5.6000000   3.6000000   1.0000000   5.6000000   5.6000000   3.6000000   1.0000000  25.2200000   5.6000000  25.2200000
 NQMom=    0.0000000   0.0000000   0.0000000   0.0000000   0.0000000   0.0000000   0.0000000   0.0000000   0.0000000   0.0000000
 NMagM=    0.0000000   0.0000000   2.7928460   0.0000000   0.0000000   0.0000000   2.7928460   0.0000000   0.0000000   0.0000000
 AtZNuc=   8.0000000   6.0000000   1.0000000   8.0000000   8.0000000   6.0000000   1.0000000  26.0000000   8.0000000  26.0000000

  Atom        21          22          23          24          25          26          27          28          29          30
 IAtWgt=          16          16          56          16          12           1          12           1          16           1
 AtmWgt=  15.9949146  15.9949146  55.9349393  15.9949146  12.0000000   1.0078250  12.0000000   1.0078250  15.9949146   1.0078250
 NucSpn=           0           0           0           0           0           1           0           1           0           1
 AtZEff=   5.6000000   5.6000000  25.2200000   5.6000000   3.6000000   1.0000000   3.6000000   1.0000000   5.6000000   1.0000000
 NQMom=    0.0000000   0.0000000   0.0000000   0.0000000   0.0000000   0.0000000   0.0000000   0.0000000   0.0000000   0.0000000
 NMagM=    0.0000000   0.0000000   0.0000000   0.0000000   0.0000000   2.7928460   0.0000000   2.7928460   0.0000000   2.7928460
 AtZNuc=   8.0000000   8.0000000  26.0000000   8.0000000   6.0000000   1.0000000   6.0000000   1.0000000   8.0000000   1.0000000

  Atom        31          32          33          34
 IAtWgt=           1          16           1           1
 AtmWgt=   1.0078250  15.9949146   1.0078250   1.0078250
 NucSpn=           1           0           1           1
 AtZEff=   1.0000000   5.6000000   1.0000000   1.0000000
 NQMom=    0.0000000   0.0000000   0.0000000   0.0000000
 NMagM=    2.7928460   0.0000000   2.7928460   2.7928460
 AtZNuc=   1.0000000   8.0000000   1.0000000   1.0000000
 Leave Link  101 at Wed Feb  1 07:24:18 2023, MaxMem= 14763950080 cpu:               0.2 elap:               0.9
 (Enter /software/commercial/gaussian/g16/AVX2/g16/l103.exe)

 GradGradGradGradGradGradGradGradGradGradGradGradGradGradGradGradGradGrad
 Berny optimization.
 Initialization pass.
 Trust Radius=3.00D-01 FncErr=1.00D-07 GrdErr=1.00D-07 EigMax=2.50D+02 EigMin=1.00D-04
 Number of steps in this run=      2 maximum allowed number of steps=      2.
 GradGradGradGradGradGradGradGradGradGradGradGradGradGradGradGradGradGrad

 Leave Link  103 at Wed Feb  1 07:24:20 2023, MaxMem= 14763950080 cpu:               0.1 elap:               1.3
 (Enter /software/commercial/gaussian/g16/AVX2/g16/l202.exe)
                          Input orientation:                          
 ---------------------------------------------------------------------
 Center     Atomic      Atomic             Coordinates (Angstroms)
 Number     Number       Type             X           Y           Z
 ---------------------------------------------------------------------
      1          8           0        1.438376   -2.153135   -1.714415
      2          8           0       -0.787910   -2.248215   -1.379003
      3          6           0        0.283239   -2.579499   -1.940826
      4          1           0        0.193458   -3.339440   -2.736042
      5          8           0        1.967738    2.210024    1.386148
      6          8           0        3.200333    0.359363    1.026705
      7          6           0        2.951777    1.461566    1.572682
      8          1           0        3.693582    1.815721    2.310605
      9          8           0       -2.269227    0.138284   -1.172925
     10          8           0        2.780687    0.454344   -1.825857
     11          8           0        1.651777    2.372109   -1.474095
     12          6           0        2.472677    1.639545   -2.078080
     13          1           0        2.987971    2.098103   -2.940943
     14          8           0       -0.446029   -2.303451    1.424282
     15          8           0        1.786995   -2.256238    1.130629
     16          6           0        0.727521   -2.672470    1.656397
     17          1           0        0.839572   -3.460379    2.422306
     18         26           0       -1.069467   -0.895496    0.099433
     19          8           0       -1.988686    0.046986    1.635664
     20         26           0        0.371825    2.019492    0.145631
     21          8           0       -0.940384    2.040546    1.701308
     22          8           0       -1.303196    2.172945   -1.140902
     23         26           0        2.145922   -0.804606   -0.363559
     24          8           0        0.490938    0.113585   -0.043131
     25          6           0       -1.771980    1.192802    2.097383
     26          1           0       -2.390618    1.486751    2.962741
     27          6           0       -2.169600    1.341850   -1.502543
     28          1           0       -2.940358    1.712927   -2.201286
     29          8           0        0.173968    4.178308   -0.119801
     30          1           0        0.852175    4.304909   -0.799400
     31          1           0       -0.661858    4.183558   -0.609761
     32          8           0        4.064964   -1.839901   -0.254394
     33          1           0        4.523353   -1.216379    0.328429
     34          1           0        3.805872   -2.568391    0.329101
 ---------------------------------------------------------------------
                    Distance matrix (angstroms):
                    1          2          3          4          5
     1  O    0.000000
     2  O    2.253417   0.000000
     3  C    1.251953   1.254095   0.000000
     4  H    2.000215   1.998853   1.103604   0.000000
     5  O    5.378742   5.925837   6.070075   7.137021   0.000000
     6  O    4.114716   5.337881   5.094368   6.072950   2.252428
     7  C    5.114827   6.038226   5.982978   7.015917   1.250327
     8  H    6.085932   7.086082   7.001647   8.018430   1.997156
     9  O    4.392053   2.816407   3.806718   4.539022   5.365895
    10  O    2.934820   4.498709   3.931242   4.681345   3.749702
    11  O    4.536643   5.225754   5.158406   6.028350   2.882202
    12  C    3.947968   5.121992   4.755292   5.515255   3.547010
    13  H    4.688139   5.965519   5.495067   6.117039   4.447147
    14  O    3.664014   2.824595   3.454271   4.334803   5.118514
    15  O    2.868177   3.595615   3.435056   4.320166   4.477215
    16  C    3.483877   3.419090   3.625747   4.474773   5.044791
    17  H    4.379488   4.309058   4.485797   5.200062   5.873657
    18  Fe   3.340804   2.023584   2.971251   3.950666   4.530398
    19  O    5.273359   3.974673   4.985112   5.944868   4.516004
    20  Fe   4.691281   4.677906   5.050926   6.087200   2.030302
    21  O    5.908690   5.282521   6.008927   7.065403   2.930055
    22  O    5.153649   4.457450   5.073694   5.930500   4.133566
    23  Fe   2.035673   3.423813   3.017880   3.983236   3.490160
    24  O    2.971338   2.999684   3.301073   4.389038   2.935784
    25  C    6.002623   4.989414   5.895872   6.911307   3.940316
    26  H    7.055902   5.947216   6.908608   7.902259   4.690847
    27  C    5.027653   3.848753   4.646018   5.387025   5.120139
    28  H    5.861466   4.582557   5.374415   5.969353   6.099688
    29  O    6.650465   6.618987   6.999715   7.960002   3.059352
    30  H    6.548834   6.780063   7.001544   7.913316   3.226399
    31  H    6.766456   6.478837   6.957290   7.864359   3.846201
    32  O    3.021382   4.998185   4.206245   4.836916   4.846816
    33  H    3.816780   5.673580   4.998617   5.713699   4.403427
    34  H    3.154907   4.911513   4.190660   4.799912   5.227746
                    6          7          8          9         10
     6  O    0.000000
     7  C    1.254879   0.000000
     8  H    2.003166   1.104641   0.000000
     9  O    5.899436   6.045520   7.106608   0.000000
    10  O    2.884828   3.548779   4.449387   5.101749   0.000000
    11  O    3.564151   3.435395   4.336184   4.522715   2.252997
    12  C    3.436283   3.686364   4.558751   5.055565   1.250275
    13  H    4.337113   4.558432   5.306259   5.882594   1.997080
    14  O    4.532616   5.073703   5.906737   4.003949   5.346077
    15  O    2.974844   3.920994   4.648470   5.243380   4.132250
    16  C    3.962742   4.695165   5.419351   4.988577   5.110631
    17  H    4.702268   5.422989   5.999590   5.961601   6.094249
    18  Fe   4.545954   4.888415   5.909875   2.031507   4.511374
    19  O    5.233960   5.139376   5.989336   2.824042   5.907198
    20  Fe   3.395995   3.000652   3.970228   3.500384   3.484116
    21  O    4.519624   3.937090   4.679255   3.694000   5.366870
    22  O    5.316895   5.096508   6.083445   2.252573   4.483397
    23  Fe   2.097486   3.087713   4.051238   4.586682   2.031304
    24  O    2.923316   3.237843   4.323687   2.982542   2.921845
    25  C    5.154112   4.760402   5.505076   3.471912   6.055073
    26  H    6.023120   5.520334   6.127887   4.351647   7.123126
    27  C    6.016524   5.974934   7.010104   1.251856   5.039597
    28  H    7.068250   7.001662   8.023521   1.996858   5.869867
    29  O    5.005767   4.238091   4.886346   4.837361   4.855257
    30  H    4.941239   4.256725   4.893035   5.219525   4.427146
    31  H    5.676179   5.023013   5.753699   4.389195   5.218912
    32  O    2.688041   3.934091   4.481152   6.699171   3.063074
    33  H    2.172771   3.345057   3.716339   7.087194   3.235606
    34  H    3.070028   4.303083   4.812423   6.818284   3.851204
                   11         12         13         14         15
    11  O    0.000000
    12  C    1.255119   0.000000
    13  H    2.003031   1.104689   0.000000
    14  O    5.887466   6.027653   7.086694   0.000000
    15  O    5.312671   5.093436   6.081145   2.252745   0.000000
    16  C    6.008495   5.965346   7.000253   1.251908   1.253861
    17  H    7.061128   6.994978   8.017280   1.996823   2.003994
    18  Fe   4.534138   4.869782   5.887981   2.031314   3.327816
    19  O    5.322573   6.019294   7.065376   2.819402   4.451479
    20  Fe   2.094309   3.082665   4.046892   4.581667   4.610292
    21  O    4.112471   5.108185   6.081593   4.380804   5.121193
    22  O    2.980361   3.926835   4.654016   5.230012   5.858907
    23  Fe   3.401322   3.003369   3.972112   3.487281   2.113921
    24  O    2.914813   3.224416   4.309385   2.978804   2.945087
    25  C    5.086092   5.970861   6.990095   3.799342   5.049435
    26  H    6.067152   7.006058   8.009772   4.529229   5.900767
    27  C    3.957925   4.687280   5.407537   4.982491   5.961080
    28  H    4.695853   5.414934   5.986697   5.957996   7.014541
    29  O    2.698219   3.945154   4.494964   6.691920   6.750468
    30  H    2.197793   3.371234   3.744038   7.092287   6.902721
    31  H    3.062896   4.295727   4.806744   6.801853   7.106111
    32  O    5.005214   4.238838   4.887263   4.835483   2.698290
    33  H    4.936829   4.260617   4.902243   5.203593   3.035207
    34  H    5.683325   5.027788   5.756589   4.398668   2.194482
                   16         17         18         19         20
    16  C    0.000000
    17  H    1.104523   0.000000
    18  Fe   2.968322   3.952061   0.000000
    19  O    3.843651   4.573779   2.023177   0.000000
    20  Fe   4.942008   5.952396   3.252170   3.418039   0.000000
    21  O    4.999644   5.826513   3.347090   2.253337   2.035305
    22  O    5.952037   7.001588   3.317890   3.563554   2.117642
    23  Fe   3.095319   4.064569   3.249822   4.670877   3.373755
    24  O    3.272074   4.355817   1.863715   2.995217   1.918931
    25  C    4.624100   5.345828   2.974276   1.254209   3.014739
    26  H    5.359892   5.932983   3.952098   1.998901   3.981333
    27  C    5.872561   6.893544   2.963501   3.399668   3.103951
    28  H    6.896866   7.901175   3.949356   4.289898   4.070940
    29  O    7.098906   8.078048   5.228545   4.982625   2.184053
    30  H    7.397993   8.407095   5.616478   5.668328   2.519316
    31  H    7.353297   8.359276   5.144502   4.890158   2.514419
    32  O    3.934822   4.493754   5.232540   6.616596   5.356697
    33  H    4.276919   4.794798   5.606695   6.761036   5.266826
    34  H    3.353922   3.738460   5.159482   6.490317   5.733673
                   21         22         23         24         25
    21  O    0.000000
    22  O    2.868330   0.000000
    23  Fe   4.678018   4.622390   0.000000
    24  O    2.967309   2.943634   1.919563   0.000000
    25  C    1.251838   3.415688   5.039428   3.296560   0.000000
    26  H    2.000270   4.300376   6.074108   4.384543   1.103614
    27  C    3.501971   1.253857   4.952604   3.273680   3.624883
    28  H    4.397439   2.004078   5.965355   4.357674   4.484885
    29  O    3.021298   2.691866   5.364462   4.077783   4.197125
    30  H    3.820229   3.050823   5.288751   4.274299   4.996274
    31  H    3.164035   2.176234   5.729400   4.267867   4.183972
    32  O    6.628435   6.760619   2.183226   4.078529   6.985561
    33  H    6.507286   6.898921   2.510096   4.262303   6.968828
    34  H    6.756641   7.123465   2.519156   4.280226   6.955993
                   26         27         28         29         30
    26  H    0.000000
    27  C    4.473097   0.000000
    28  H    5.198129   1.104540   0.000000
    29  O    4.829456   3.930620   4.484385   0.000000
    30  H    5.710642   4.290134   4.802808   0.968425   0.000000
    31  H    4.798349   3.338511   3.718674   0.968861   1.530681
    32  O    7.942991   7.109937   8.092436   7.167762   6.955411
    33  H    7.877151   7.395445   8.407572   6.944113   6.725635
    34  H    7.859817   7.372325   8.381179   7.675297   7.565719
                   31         32         33         34
    31  H    0.000000
    32  O    7.664933   0.000000
    33  H    7.544928   0.968804   0.000000
    34  H    8.150515   0.968655   1.530593   0.000000
 Symmetry turned off by external request.
 Stoichiometry    C6H10Fe3O15(15)
 Framework group  C1[X(C6H10Fe3O15)]
 Deg. of freedom    96
 Full point group                 C1      NOp   1
 Rotational constants (GHZ):           0.2445645           0.2121693           0.1635633
 Leave Link  202 at Wed Feb  1 07:24:22 2023, MaxMem= 14763950080 cpu:               0.0 elap:               0.6
 (Enter /software/commercial/gaussian/g16/AVX2/g16/l301.exe)
 General basis read from cards:  (5D, 7F)
 Centers:       4      8     13     17     26     28     30     31     33     34
 S 3 1.00
     Exponent=  3.4061341000D+01 Coefficients=  6.0251978000D-03
     Exponent=  5.1235746000D+00 Coefficients=  4.5021094000D-02
     Exponent=  1.1646626000D+00 Coefficients=  2.0189726000D-01
 S 1 1.00
     Exponent=  3.2723041000D-01 Coefficients=  1.0000000000D+00
 S 1 1.00
     Exponent=  1.0307241000D-01 Coefficients=  1.0000000000D+00
 P 1 1.00
     Exponent=  8.0000000000D-01 Coefficients=  1.0000000000D+00
 ****
 Centers:       1      2      5      6      9     10     11     14     15     19
 Centers:      21     22     24     29     32
 S 6 1.00
     Exponent=  2.7032382631D+04 Coefficients=  2.1726302465D-04
     Exponent=  4.0523871392D+03 Coefficients=  1.6838662199D-03
     Exponent=  9.2232722710D+02 Coefficients=  8.7395616265D-03
     Exponent=  2.6124070989D+02 Coefficients=  3.5239968808D-02
     Exponent=  8.5354641351D+01 Coefficients=  1.1153519115D-01
     Exponent=  3.1035035245D+01 Coefficients=  2.5588953961D-01
 S 2 1.00
     Exponent=  1.2260860728D+01 Coefficients=  3.9768730901D-01
     Exponent=  4.9987076005D+00 Coefficients=  2.4627849430D-01
 S 1 1.00
     Exponent=  1.1703108158D+00 Coefficients=  1.0000000000D+00
 S 1 1.00
     Exponent=  4.6474740994D-01 Coefficients=  1.0000000000D+00
 S 1 1.00
     Exponent=  1.8504536357D-01 Coefficients=  1.0000000000D+00
 P 4 1.00
     Exponent=  6.3274954801D+01 Coefficients=  6.0685103418D-03
     Exponent=  1.4627049379D+01 Coefficients=  4.1912575824D-02
     Exponent=  4.4501223456D+00 Coefficients=  1.6153841088D-01
     Exponent=  1.5275799647D+00 Coefficients=  3.5706951311D-01
 P 1 1.00
     Exponent=  5.2935117943D-01 Coefficients=  4.4794207502D-01
 P 1 1.00
     Exponent=  1.7478421270D-01 Coefficients=  2.4446069663D-01
 D 1 1.00
     Exponent=  2.3140000000D+00 Coefficients=  1.0000000000D+00
 D 1 1.00
     Exponent=  6.4500000000D-01 Coefficients=  1.0000000000D+00
 F 1 1.00
     Exponent=  1.4280000000D+00 Coefficients=  1.0000000000D+00
 ****
 Centers:       3      7     12     16     25     27
 S 6 1.00
     Exponent=  1.3575349682D+04 Coefficients=  2.2245814352D-04
     Exponent=  2.0352333680D+03 Coefficients=  1.7232738252D-03
     Exponent=  4.6322562359D+02 Coefficients=  8.9255715314D-03
     Exponent=  1.3120019598D+02 Coefficients=  3.5727984502D-02
     Exponent=  4.2853015891D+01 Coefficients=  1.1076259931D-01
     Exponent=  1.5584185766D+01 Coefficients=  2.4295627626D-01
 S 2 1.00
     Exponent=  6.2067138508D+00 Coefficients=  4.1440263448D-01
     Exponent=  2.5764896527D+00 Coefficients=  2.3744968655D-01
 S 1 1.00
     Exponent=  5.7696339419D-01 Coefficients=  1.0000000000D+00
 S 1 1.00
     Exponent=  2.2972831358D-01 Coefficients=  1.0000000000D+00
 S 1 1.00
     Exponent=  9.5164440028D-02 Coefficients=  1.0000000000D+00
 P 4 1.00
     Exponent=  3.4697232244D+01 Coefficients=  5.3333657805D-03
     Exponent=  7.9582622826D+00 Coefficients=  3.5864109092D-02
     Exponent=  2.3780826883D+00 Coefficients=  1.4215873329D-01
     Exponent=  8.1433208183D-01 Coefficients=  3.4270471845D-01
 P 1 1.00
     Exponent=  2.8887547253D-01 Coefficients=  4.6445822433D-01
 P 1 1.00
     Exponent=  1.0056823671D-01 Coefficients=  2.4955789874D-01
 D 1 1.00
     Exponent=  1.0970000000D+00 Coefficients=  1.0000000000D+00
 D 1 1.00
     Exponent=  3.1800000000D-01 Coefficients=  1.0000000000D+00
 F 1 1.00
     Exponent=  7.6100000000D-01 Coefficients=  1.0000000000D+00
 ****
 Centers:      18     20     23
 S 8 1.00
     Exponent=  3.0078484637D+05 Coefficients=  2.2806273096D-04
     Exponent=  4.5088970557D+04 Coefficients=  1.7681788761D-03
     Exponent=  1.0262516317D+04 Coefficients=  9.1927083490D-03
     Exponent=  2.9052897293D+03 Coefficients=  3.7355495807D-02
     Exponent=  9.4611487137D+02 Coefficients=  1.2151108426D-01
     Exponent=  3.3987832894D+02 Coefficients=  2.8818881468D-01
     Exponent=  1.3194425588D+02 Coefficients=  4.1126612677D-01
     Exponent=  5.2111494077D+01 Coefficients=  2.1518583573D-01
 S 4 1.00
     Exponent=  3.2948839267D+02 Coefficients= -2.4745216477D-02
     Exponent=  1.0192332739D+02 Coefficients= -1.1683089050D-01
     Exponent=  1.6240462745D+01 Coefficients=  5.5293621136D-01
     Exponent=  6.8840675801D+00 Coefficients=  5.3601640182D-01
 S 2 1.00
     Exponent=  1.0470693782D+01 Coefficients= -2.2912708577D-01
     Exponent=  1.7360039648D+00 Coefficients=  7.1159319984D-01
 S 1 1.00
     Exponent=  7.2577288979D-01 Coefficients=  1.0000000000D+00
 S 1 1.00
     Exponent=  1.1595528203D-01 Coefficients=  1.0000000000D+00
 S 1 1.00
     Exponent=  4.1968227746D-02 Coefficients=  1.0000000000D+00
 P 6 1.00
     Exponent=  1.5853959970D+03 Coefficients=  2.3793960179D-03
     Exponent=  3.7538006499D+02 Coefficients=  1.9253154755D-02
     Exponent=  1.2031816501D+02 Coefficients=  9.0021836536D-02
     Exponent=  4.4788749031D+01 Coefficients=  2.5798172356D-01
     Exponent=  1.7829278584D+01 Coefficients=  4.1492649744D-01
     Exponent=  7.2247153786D+00 Coefficients=  2.4207474784D-01
 P 3 1.00
     Exponent=  2.8143219756D+01 Coefficients= -2.9041755152D-02
     Exponent=  3.8743241412D+00 Coefficients=  5.5312260343D-01
     Exponent=  1.5410752281D+00 Coefficients=  9.6771136842D-01
 P 1 1.00
     Exponent=  5.8285615250D-01 Coefficients=  1.0000000000D+00
 P 1 1.00
     Exponent=  1.3491500000D-01 Coefficients=  1.0000000000D+00
 D 4 1.00
     Exponent=  6.1996675034D+01 Coefficients=  1.1971972255D-02
     Exponent=  1.7873732552D+01 Coefficients=  7.3210135410D-02
     Exponent=  6.2744782934D+00 Coefficients=  2.3103094314D-01
     Exponent=  2.3552337175D+00 Coefficients=  3.9910706494D-01
 D 1 1.00
     Exponent=  8.5432239901D-01 Coefficients=  4.1391589765D-01
 D 1 1.00
     Exponent=  2.7869254413D-01 Coefficients=  2.1909269782D-01
 D 1 1.00
     Exponent=  9.1000000000D-02 Coefficients=  1.0000000000D+00
 F 1 1.00
     Exponent=  1.5980000000D+00 Coefficients=  1.0000000000D+00
 ****
 Ernie: Thresh=  0.10000D-02 Tol=  0.10000D-05 Strict=F.
   846 basis functions,  1457 primitive gaussians,   972 cartesian basis functions
   129 alpha electrons      115 beta electrons
       nuclear repulsion energy      4415.6051588392 Hartrees.
 IExCor= 4134 DFT=T Ex+Corr=M06L ExCW=0 ScaHFX=  0.000000
 ScaDFX=  1.000000  1.000000  1.000000  1.000000 ScalE2=  1.000000  1.000000
 IRadAn=      5 IRanWt=     -1 IRanGd=            0 ICorTp=0 IEmpDi=  4
 NAtoms=   34 NActive=   34 NUniq=   34 SFac= 1.00D+00 NAtFMM=   60 NAOKFM=F Big=F
 Integral buffers will be    131072 words long.
 Raffenetti 2 integral format.
 Two-electron integral symmetry is turned off.
 Leave Link  301 at Wed Feb  1 07:24:23 2023, MaxMem= 14763950080 cpu:               0.1 elap:               0.7
 (Enter /software/commercial/gaussian/g16/AVX2/g16/l302.exe)
 NPDir=0 NMtPBC=     1 NCelOv=     1 NCel=       1 NClECP=     1 NCelD=      1
         NCelK=      1 NCelE2=     1 NClLst=     1 CellRange=     0.0.
 One-electron integrals computed using PRISM.
 NBasis=   846 RedAO= T EigKep=  5.21D-04  NBF=   846
 NBsUse=   846 1.00D-06 EigRej= -1.00D+00 NBFU=   846
 Precomputing XC quadrature grid using
 IXCGrd= 4 IRadAn=           5 IRanWt=          -1 IRanGd=           0 AccXCQ= 0.00D+00.
 Generated NRdTot=       0 NPtTot=           0 NUsed=           0 NTot=          32
 NSgBfM=   963   962   963   963   963 MxSgAt=    34 MxSgA2=    34.
 Leave Link  302 at Wed Feb  1 07:24:28 2023, MaxMem= 14763950080 cpu:               2.7 elap:               3.1
 (Enter /software/commercial/gaussian/g16/AVX2/g16/l303.exe)
 DipDrv:  MaxL=1.
 Leave Link  303 at Wed Feb  1 07:24:29 2023, MaxMem= 14763950080 cpu:               0.2 elap:               0.8
 (Enter /software/commercial/gaussian/g16/AVX2/g16/l401.exe)
 Initial guess from the checkpoint file:  "/scratch1/svicchi/G09-83844.pbs02/02-freq/FeFeFe-A-2xH2O-freq.chk"
 B after Tr=     0.000000    0.000000    0.000000
         Rot=    1.000000    0.000000    0.000000    0.000000 Ang=   0.00 deg.
 Guess basis will be translated and rotated to current coordinates.
 JPrj=2 DoOrth=T DoCkMO=T.
 Initial guess <Sx>= 0.0000 <Sy>= 0.0000 <Sz>= 7.0000 <S**2>=56.0658 S= 7.0044
 Leave Link  401 at Wed Feb  1 07:24:37 2023, MaxMem= 14763950080 cpu:               2.2 elap:               6.1
 (Enter /software/commercial/gaussian/g16/AVX2/g16/l502.exe)
 Two-electron integral symmetry not used.
 UHF open shell SCF:
 Using DIIS extrapolation, IDIIS=  1040.
 NGot= 14763950080 LenX= 14762047750 LenY= 14761101994
 Requested convergence on RMS density matrix=1.00D-08 within 150 cycles.
 Requested convergence on MAX density matrix=1.00D-06.
 Requested convergence on             energy=1.00D-06.
 No special actions if energy rises.
 Fock matrices will be formed incrementally for  20 cycles.

 Cycle   1  Pass 1  IDiag  1:
 FoFJK:  IHMeth= 1 ICntrl=     500 DoSepK=F KAlg= 0 I1Cent=           0 FoldK=F
 IRaf= 790000000 NMat=       1 IRICut=       1 DoRegI=T DoRafI=F ISym2E= 0 IDoP0=0 IntGTp=1.
 FoFCou: FMM=F IPFlag=           0 FMFlag=      100000 FMFlg1=           0
         NFxFlg=           0 DoJE=T BraDBF=F KetDBF=F FulRan=T
         wScrn=  0.000000 ICntrl=       500 IOpCl=  0 I1Cent=           0 NGrid=           0
         NMat0=    1 NMatS0=      1 NMatT0=    0 NMatD0=    1 NMtDS0=    0 NMtDT0=    0
 Symmetry not used in FoFCou.
 E= -5155.01946669989    
 DIIS: error= 1.88D-07 at cycle   1 NSaved=   1.
 NSaved= 1 IEnMin= 1 EnMin= -5155.01946669989     IErMin= 1 ErrMin= 1.88D-07
 ErrMax= 1.88D-07  0.00D+00 EMaxC= 1.00D-01 BMatC= 4.95D-11 BMatP= 4.95D-11
 IDIUse=1 WtCom= 1.00D+00 WtEn= 0.00D+00
 Coeff-Com:  0.100D+01
 Coeff:      0.100D+01
 Gap=     0.180 Goal=   None    Shift=    0.000
 Gap=     0.017 Goal=   None    Shift=    0.000
 RMSDP=6.08D-08 MaxDP=1.72D-05              OVMax= 8.48D-05

 Cycle   2  Pass 1  IDiag  1:
 RMSU=  6.08D-08    CP:  1.00D+00
 E= -5155.01946669670     Delta-E=        0.000000003191 Rises=F Damp=F
 DIIS: error= 3.40D-06 at cycle   2 NSaved=   2.
 NSaved= 2 IEnMin= 1 EnMin= -5155.01946669989     IErMin= 1 ErrMin= 1.88D-07
 ErrMax= 3.40D-06  0.00D+00 EMaxC= 1.00D-01 BMatC= 1.65D-08 BMatP= 4.95D-11
 IDIUse=1 WtCom= 1.00D+00 WtEn= 0.00D+00
 Coeff-Com:  0.948D+00 0.517D-01
 Coeff:      0.948D+00 0.517D-01
 Gap=     0.180 Goal=   None    Shift=    0.000
 Gap=     0.017 Goal=   None    Shift=    0.000
 RMSDP=5.79D-08 MaxDP=1.61D-05 DE= 3.19D-09 OVMax= 8.08D-05

 Cycle   3  Pass 1  IDiag  1:
 RMSU=  3.23D-09    CP:  1.00D+00  4.88D-02
 E= -5155.01946669979     Delta-E=       -0.000000003096 Rises=F Damp=F
 DIIS: error= 1.56D-07 at cycle   3 NSaved=   3.
 NSaved= 3 IEnMin= 1 EnMin= -5155.01946669989     IErMin= 3 ErrMin= 1.56D-07
 ErrMax= 1.56D-07  0.00D+00 EMaxC= 1.00D-01 BMatC= 4.33D-11 BMatP= 4.95D-11
 IDIUse=1 WtCom= 1.00D+00 WtEn= 0.00D+00
 Coeff-Com:  0.891D+00 0.489D-01 0.597D-01
 Coeff:      0.891D+00 0.489D-01 0.597D-01
 Gap=     0.180 Goal=   None    Shift=    0.000
 Gap=     0.017 Goal=   None    Shift=    0.000
 RMSDP=3.68D-09 MaxDP=1.06D-06 DE=-3.10D-09 OVMax= 5.16D-06

 Cycle   4  Pass 1  IDiag  1:
 RMSU=  1.29D-09    CP:  1.00D+00  5.21D-02 -6.69D-02
 E= -5155.01946669989     Delta-E=       -0.000000000098 Rises=F Damp=F
 DIIS: error= 4.31D-08 at cycle   4 NSaved=   4.
 NSaved= 4 IEnMin= 4 EnMin= -5155.01946669989     IErMin= 4 ErrMin= 4.31D-08
 ErrMax= 4.31D-08  0.00D+00 EMaxC= 1.00D-01 BMatC= 4.26D-12 BMatP= 4.33D-11
 IDIUse=1 WtCom= 1.00D+00 WtEn= 0.00D+00
 Coeff-Com:  0.649D+00 0.360D-01 0.964D-01 0.218D+00
 Coeff:      0.649D+00 0.360D-01 0.964D-01 0.218D+00
 Gap=     0.180 Goal=   None    Shift=    0.000
 Gap=     0.017 Goal=   None    Shift=    0.000
 RMSDP=9.80D-10 MaxDP=2.61D-07 DE=-9.82D-11 OVMax= 1.29D-06

 SCF Done:  E(UM06L) =  -5155.01946670     A.U. after    4 cycles
            NFock=  4  Conv=0.98D-09     -V/T= 2.0017
 <Sx>= 0.0000 <Sy>= 0.0000 <Sz>= 7.0000 <S**2>=56.0658 S= 7.0044
 <L.S>=  0.00000000000    
 KE= 5.146518520925D+03 PE=-2.107097515396D+04 EE= 6.353832007498D+03
 Annihilation of the first spin contaminant:
 S**2 before annihilation    56.0658,   after    56.0003
 Leave Link  502 at Wed Feb  1 07:35:28 2023, MaxMem= 14763950080 cpu:            1274.1 elap:             650.3
 (Enter /software/commercial/gaussian/g16/AVX2/g16/l508.exe)
 QCSCF skips out because SCF is already converged.
 Leave Link  508 at Wed Feb  1 07:35:30 2023, MaxMem= 14763950080 cpu:               0.0 elap:               0.9
 (Enter /software/commercial/gaussian/g16/AVX2/g16/l801.exe)
 DoSCS=F DFT=T ScalE2(SS,OS)=  1.000000  1.000000
 Range of M.O.s used for correlation:     1   846
 NBasis=   846 NAE=   129 NBE=   115 NFC=     0 NFV=     0
 NROrb=    846 NOA=   129 NOB=   115 NVA=   717 NVB=   731

 **** Warning!!: The smallest beta delta epsilon is  0.16980195D-01

 Leave Link  801 at Wed Feb  1 07:35:31 2023, MaxMem= 14763950080 cpu:               0.1 elap:               0.5
 (Enter /software/commercial/gaussian/g16/AVX2/g16/l1002.exe)
 Minotr:  UHF open shell wavefunction.
          Direct CPHF calculation.
          Differentiating once with respect to electric field.
                with respect to dipole field.
          Electric field/nuclear overlap derivatives assumed to be zero.
          Requested convergence is 1.0D-08 RMS, and 1.0D-07 maximum.
          Secondary convergence is 1.0D-12 RMS, and 1.0D-12 maximum.
          NewPWx=F KeepS1=T KeepF1=T KeepIn=T MapXYZ=F SortEE=F KeepMc=T.
        10455 words used for storage of precomputed grid.
 Two-electron integral symmetry not used.
          MDV=   14763950080 using IRadAn=       1.
          Solving linear equations simultaneously, MaxMat=     384.
          There are     3 degrees of freedom in the 1st order CPHF.  IDoFFX=0 NUNeed=     3.
      3 vectors produced by pass  0 Test12= 5.89D-12 3.33D-08 XBig12= 1.79D+04 9.55D+01.
 AX will form     3 AO Fock derivatives at one time.
 FoFJK:  IHMeth= 1 ICntrl=     500 DoSepK=F KAlg= 0 I1Cent=           0 FoldK=F
 IRaf= 790000000 NMat=       3 IRICut=       1 DoRegI=T DoRafI=F ISym2E= 0 IDoP0=0 IntGTp=1.
 FoFCou: FMM=F IPFlag=           0 FMFlag=      100000 FMFlg1=           0
         NFxFlg=           0 DoJE=T BraDBF=F KetDBF=F FulRan=T
         wScrn=  0.000000 ICntrl=       500 IOpCl=  0 I1Cent=           0 NGrid=           0
         NMat0=    3 NMatS0=      3 NMatT0=    0 NMatD0=    3 NMtDS0=    0 NMtDT0=    0
 Symmetry not used in FoFCou.
      3 vectors produced by pass  1 Test12= 5.89D-12 3.33D-08 XBig12= 1.77D+05 8.20D+01.
      3 vectors produced by pass  2 Test12= 5.89D-12 3.33D-08 XBig12= 1.22D+05 5.50D+01.
      3 vectors produced by pass  3 Test12= 5.89D-12 3.33D-08 XBig12= 9.00D+04 6.72D+01.
      3 vectors produced by pass  4 Test12= 5.89D-12 3.33D-08 XBig12= 4.74D+04 1.01D+02.
      3 vectors produced by pass  5 Test12= 5.89D-12 3.33D-08 XBig12= 2.41D+04 6.90D+01.
      3 vectors produced by pass  6 Test12= 5.89D-12 3.33D-08 XBig12= 1.24D+04 3.17D+01.
      3 vectors produced by pass  7 Test12= 5.89D-12 3.33D-08 XBig12= 9.01D+03 2.29D+01.
      3 vectors produced by pass  8 Test12= 5.89D-12 3.33D-08 XBig12= 5.13D+03 1.32D+01.
      3 vectors produced by pass  9 Test12= 5.89D-12 3.33D-08 XBig12= 3.40D+03 1.02D+01.
      3 vectors produced by pass 10 Test12= 5.89D-12 3.33D-08 XBig12= 8.40D+02 1.03D+01.
      3 vectors produced by pass 11 Test12= 5.89D-12 3.33D-08 XBig12= 6.45D+02 1.03D+01.
      3 vectors produced by pass 12 Test12= 5.89D-12 3.33D-08 XBig12= 4.72D+02 7.73D+00.
      3 vectors produced by pass 13 Test12= 5.89D-12 3.33D-08 XBig12= 4.38D+02 6.75D+00.
      3 vectors produced by pass 14 Test12= 5.89D-12 3.33D-08 XBig12= 1.84D+02 3.59D+00.
      3 vectors produced by pass 15 Test12= 5.89D-12 3.33D-08 XBig12= 3.75D+01 1.03D+00.
      3 vectors produced by pass 16 Test12= 5.89D-12 3.33D-08 XBig12= 1.11D+01 5.57D-01.
      3 vectors produced by pass 17 Test12= 5.89D-12 3.33D-08 XBig12= 3.01D+00 3.22D-01.
      3 vectors produced by pass 18 Test12= 5.89D-12 3.33D-08 XBig12= 1.42D+00 1.29D-01.
      3 vectors produced by pass 19 Test12= 5.89D-12 3.33D-08 XBig12= 2.27D-01 4.52D-02.
      3 vectors produced by pass 20 Test12= 5.89D-12 3.33D-08 XBig12= 2.62D-02 1.14D-02.
      3 vectors produced by pass 21 Test12= 5.89D-12 3.33D-08 XBig12= 2.61D-03 5.86D-03.
      3 vectors produced by pass 22 Test12= 5.89D-12 3.33D-08 XBig12= 2.54D-04 1.46D-03.
      3 vectors produced by pass 23 Test12= 5.89D-12 3.33D-08 XBig12= 2.61D-05 3.80D-04.
      3 vectors produced by pass 24 Test12= 5.89D-12 3.33D-08 XBig12= 2.04D-06 1.88D-04.
      3 vectors produced by pass 25 Test12= 5.89D-12 3.33D-08 XBig12= 2.13D-07 5.34D-05.
      3 vectors produced by pass 26 Test12= 5.89D-12 3.33D-08 XBig12= 1.86D-08 9.36D-06.
      3 vectors produced by pass 27 Test12= 5.89D-12 3.33D-08 XBig12= 1.33D-09 3.17D-06.
      2 vectors produced by pass 28 Test12= 5.89D-12 3.33D-08 XBig12= 1.20D-10 1.84D-06.
      2 vectors produced by pass 29 Test12= 5.89D-12 3.33D-08 XBig12= 8.19D-12 3.96D-07.
      1 vectors produced by pass 30 Test12= 5.89D-12 3.33D-08 XBig12= 5.72D-13 7.21D-08.
 InvSVY:  IOpt=1 It=  1 EMax= 5.68D-14
 Solved reduced A of dimension    89 with     3 vectors.
 End of Minotr F.D. properties file   721 does not exist.
 End of Minotr F.D. properties file   722 does not exist.
 End of Minotr F.D. properties file   788 does not exist.
 Leave Link 1002 at Wed Feb  1 09:45:45 2023, MaxMem= 14763950080 cpu:           15412.9 elap:            7813.0
 (Enter /software/commercial/gaussian/g16/AVX2/g16/l1101.exe)
 Using compressed storage, NAtomX=    34.
 Will process     35 centers per pass.
 Leave Link 1101 at Wed Feb  1 09:45:49 2023, MaxMem= 14763950080 cpu:               3.1 elap:               3.5
 (Enter /software/commercial/gaussian/g16/AVX2/g16/l1102.exe)
 Symmetrizing basis deriv contribution to polar:
 IMax=3 JMax=2 DiffMx= 0.00D+00
 Leave Link 1102 at Wed Feb  1 09:45:52 2023, MaxMem= 14763950080 cpu:               0.2 elap:               1.2
 (Enter /software/commercial/gaussian/g16/AVX2/g16/l1110.exe)
 Forming Gx(P) for the SCF density, NAtomX=    34.
 Integral derivatives from FoFJK, PRISM(SPDF).
 Do as many integral derivatives as possible in FoFJK.
 G2DrvN: MDV=   14763946374.
 G2DrvN: will do    35 centers at a time, making    1 passes.
 PxScal for G2LodP:  IOpCl= 1 ISclPx=1 IMOff=     1 NMtTot=     4 NTT=  358281 ScalPx= 2.40D+00
 Calling FoFCou, ICntrl=  3507 FMM=F I1Cent=   0 AccDes= 0.00D+00.
 FoFJK:  IHMeth= 1 ICntrl=    3507 DoSepK=F KAlg= 0 I1Cent=           0 FoldK=F
 IRaf=         0 NMat=       1 IRICut=       1 DoRegI=T DoRafI=F ISym2E= 0 IDoP0=0 IntGTp=1.
 FoFCou: FMM=F IPFlag=           0 FMFlag=      100000 FMFlg1=           0
         NFxFlg=           0 DoJE=F BraDBF=F KetDBF=F FulRan=T
         wScrn=  0.000000 ICntrl=      3507 IOpCl=  0 I1Cent=           0 NGrid=           0
         NMat0=    1 NMatS0=      1 NMatT0=    0 NMatD0=    4 NMtDS0=    3 NMtDT0=    0
 Symmetry not used in FoFCou.
 End of G2Drv F.D. properties file   721 does not exist.
 End of G2Drv F.D. properties file   722 does not exist.
 End of G2Drv F.D. properties file   788 does not exist.
 Leave Link 1110 at Wed Feb  1 11:54:47 2023, MaxMem= 14763950080 cpu:           15421.8 elap:            7733.7
 (Enter /software/commercial/gaussian/g16/AVX2/g16/l1002.exe)
 Minotr:  UHF open shell wavefunction.
          IDoAtm=1111111111111111111111111111111111
          Direct CPHF calculation.
          Differentiating once with respect to electric field.
                with respect to dipole field.
          Differentiating once with respect to nuclear coordinates.
          Requested convergence is 1.0D-08 RMS, and 1.0D-07 maximum.
          Secondary convergence is 1.0D-12 RMS, and 1.0D-12 maximum.
          NewPWx=T KeepS1=F KeepF1=F KeepIn=T MapXYZ=F SortEE=F KeepMc=T.
        10455 words used for storage of precomputed grid.
 Two-electron integral symmetry not used.
          MDV=   14763950080 using IRadAn=       1.
          Solving linear equations simultaneously, MaxMat=     384.
 FoF2E skips out because all densities are zero.
 CalDSu exits because no D1Ps are significant.
 FoFJK:  IHMeth= 1 ICntrl=     500 DoSepK=F KAlg= 0 I1Cent=           0 FoldK=F
 IRaf= 790000000 NMat=     102 IRICut=       1 DoRegI=T DoRafI=F ISym2E= 0 IDoP0=3 IntGTp=3.
 FoFCou: FMM=F IPFlag=           0 FMFlag=      100000 FMFlg1=           0
         NFxFlg=           0 DoJE=F BraDBF=F KetDBF=F FulRan=T
         wScrn=  0.000000 ICntrl=       500 IOpCl=  0 I1Cent=           0 NGrid=           0
         NMat0=  102 NMatS0=    102 NMatT0=    0 NMatD0=  102 NMtDS0=    0 NMtDT0=    0
 Symmetry not used in FoFCou.
          There are   105 degrees of freedom in the 1st order CPHF.  IDoFFX=5 NUNeed=   105.
 Will reuse    3 saved solutions.
     99 vectors produced by pass  0 Test12= 1.77D-13 1.00D-09 XBig12= 1.30D+00 6.87D-01.
 AX will form    99 AO Fock derivatives at one time.
     99 vectors produced by pass  1 Test12= 1.77D-13 1.00D-09 XBig12= 4.33D+00 3.72D-01.
     99 vectors produced by pass  2 Test12= 1.77D-13 1.00D-09 XBig12= 5.97D-02 3.15D-02.
     99 vectors produced by pass  3 Test12= 1.77D-13 1.00D-09 XBig12= 2.04D-03 4.37D-03.
     99 vectors produced by pass  4 Test12= 1.77D-13 1.00D-09 XBig12= 2.62D-05 3.97D-04.
     99 vectors produced by pass  5 Test12= 1.77D-13 1.00D-09 XBig12= 5.30D-07 5.08D-05.
     99 vectors produced by pass  6 Test12= 1.77D-13 1.00D-09 XBig12= 4.84D-09 4.01D-06.
     84 vectors produced by pass  7 Test12= 1.77D-13 1.00D-09 XBig12= 4.26D-11 4.34D-07.
     18 vectors produced by pass  8 Test12= 1.77D-13 1.00D-09 XBig12= 2.76D-13 2.89D-08.
      1 vectors produced by pass  9 Test12= 1.77D-13 1.00D-09 XBig12= 1.69D-15 1.69D-09.
 InvSVY:  IOpt=1 It=  1 EMax= 3.55D-15
 Solved reduced A of dimension   796 with   105 vectors.
 FullF1:  Do perturbations      1 to       3.
 Isotropic polarizability for W=    0.000000      229.37 Bohr**3.
 FullF1:  Do perturbations      1 to       6.
 End of Minotr F.D. properties file   721 does not exist.
 End of Minotr F.D. properties file   722 does not exist.
 End of Minotr F.D. properties file   788 does not exist.
 Leave Link 1002 at Wed Feb  1 16:52:31 2023, MaxMem= 14763950080 cpu:           35533.5 elap:           17863.5
 (Enter /software/commercial/gaussian/g16/AVX2/g16/l601.exe)
 Copying SCF densities to generalized density rwf, IOpCl= 1 IROHF=0.

 **********************************************************************

            Population analysis using the SCF Density.

 **********************************************************************

 Alpha  occ. eigenvalues -- -255.61385-255.61166-255.61161 -30.05971 -30.05626
 Alpha  occ. eigenvalues --  -30.05617 -25.83635 -25.83310 -25.83308 -25.82836
 Alpha  occ. eigenvalues --  -25.82730 -25.82558 -25.82529 -25.82295 -25.82289
 Alpha  occ. eigenvalues --  -19.01897 -19.01888 -18.97425 -18.97406 -18.97399
 Alpha  occ. eigenvalues --  -18.97393 -18.97388 -18.97386 -18.97383 -18.97368
 Alpha  occ. eigenvalues --  -18.97307 -18.97296 -18.97261 -18.97243 -18.95315
 Alpha  occ. eigenvalues --  -10.17218 -10.17202 -10.17181 -10.17162 -10.17063
 Alpha  occ. eigenvalues --  -10.17053  -3.62866  -3.62622  -3.62614  -2.38075
 Alpha  occ. eigenvalues --   -2.37898  -2.37882  -2.36436  -2.36314  -2.36265
 Alpha  occ. eigenvalues --   -2.36189  -2.35780  -2.35760  -1.06167  -1.05903
 Alpha  occ. eigenvalues --   -1.05892  -1.05622  -1.05556  -1.05530  -1.04054
 Alpha  occ. eigenvalues --   -1.04026  -0.98305  -0.98266  -0.97994  -0.97903
 Alpha  occ. eigenvalues --   -0.97868  -0.97783  -0.92781  -0.58866  -0.57965
 Alpha  occ. eigenvalues --   -0.57743  -0.57517  -0.57361  -0.57289  -0.54078
 Alpha  occ. eigenvalues --   -0.54035  -0.48713  -0.48638  -0.47769  -0.47262
 Alpha  occ. eigenvalues --   -0.47233  -0.47045  -0.46885  -0.46814  -0.46426
 Alpha  occ. eigenvalues --   -0.46109  -0.45815  -0.45708  -0.44189  -0.43715
 Alpha  occ. eigenvalues --   -0.43110  -0.42041  -0.41940  -0.41282  -0.41222
 Alpha  occ. eigenvalues --   -0.40250  -0.40025  -0.39875  -0.38327  -0.37636
 Alpha  occ. eigenvalues --   -0.36832  -0.36788  -0.36449  -0.36318  -0.36280
 Alpha  occ. eigenvalues --   -0.35711  -0.35501  -0.35451  -0.35180  -0.33864
 Alpha  occ. eigenvalues --   -0.33323  -0.33037  -0.32290  -0.31846  -0.31290
 Alpha  occ. eigenvalues --   -0.29070  -0.28729  -0.28493  -0.28450  -0.28207
 Alpha  occ. eigenvalues --   -0.28176  -0.28051  -0.27915  -0.27396  -0.27243
 Alpha  occ. eigenvalues --   -0.26985  -0.26918  -0.26480  -0.24727  -0.23884
 Alpha  occ. eigenvalues --   -0.22132  -0.21963  -0.21580  -0.21361
 Alpha virt. eigenvalues --   -0.03320  -0.02702  -0.02659  -0.02352  -0.01446
 Alpha virt. eigenvalues --   -0.01276   0.01982   0.02686   0.03743   0.07531
 Alpha virt. eigenvalues --    0.07834   0.08228   0.08280   0.08904   0.09270
 Alpha virt. eigenvalues --    0.09488   0.10038   0.10278   0.10940   0.12851
 Alpha virt. eigenvalues --    0.13649   0.14621   0.14771   0.15609   0.16808
 Alpha virt. eigenvalues --    0.17091   0.18164   0.18376   0.18787   0.19259
 Alpha virt. eigenvalues --    0.21424   0.21894   0.22152   0.23190   0.23384
 Alpha virt. eigenvalues --    0.23784   0.23872   0.24393   0.25777   0.25929
 Alpha virt. eigenvalues --    0.26774   0.27058   0.27673   0.27798   0.28210
 Alpha virt. eigenvalues --    0.28967   0.29260   0.29939   0.29988   0.30527
 Alpha virt. eigenvalues --    0.31122   0.31142   0.31784   0.32049   0.32581
 Alpha virt. eigenvalues --    0.33186   0.33523   0.35164   0.35762   0.35827
 Alpha virt. eigenvalues --    0.36129   0.37542   0.37653   0.38482   0.38560
 Alpha virt. eigenvalues --    0.39058   0.39254   0.39689   0.40266   0.40554
 Alpha virt. eigenvalues --    0.41145   0.41331   0.41380   0.41974   0.42019
 Alpha virt. eigenvalues --    0.42408   0.42475   0.43628   0.44291   0.44346
 Alpha virt. eigenvalues --    0.45009   0.45376   0.45824   0.46482   0.47470
 Alpha virt. eigenvalues --    0.47938   0.49716   0.50321   0.50676   0.51538
 Alpha virt. eigenvalues --    0.52444   0.52758   0.53208   0.53646   0.53797
 Alpha virt. eigenvalues --    0.54229   0.54628   0.56028   0.56160   0.57222
 Alpha virt. eigenvalues --    0.57558   0.58746   0.59243   0.60218   0.60533
 Alpha virt. eigenvalues --    0.61850   0.62513   0.63475   0.63570   0.63903
 Alpha virt. eigenvalues --    0.64049   0.65725   0.66818   0.67678   0.68171
 Alpha virt. eigenvalues --    0.68706   0.68869   0.69348   0.70151   0.70330
 Alpha virt. eigenvalues --    0.70557   0.71437   0.71591   0.72221   0.72757
 Alpha virt. eigenvalues --    0.73796   0.74075   0.74340   0.74820   0.75168
 Alpha virt. eigenvalues --    0.75901   0.76363   0.76508   0.76643   0.77166
 Alpha virt. eigenvalues --    0.77513   0.78443   0.80136   0.80959   0.81743
 Alpha virt. eigenvalues --    0.82381   0.84507   0.84830   0.85299   0.87423
 Alpha virt. eigenvalues --    0.88421   0.89235   0.89596   0.90204   0.90333
 Alpha virt. eigenvalues --    0.90656   0.92058   0.92415   0.93130   0.93533
 Alpha virt. eigenvalues --    0.94776   0.94999   0.95215   0.96779   0.96975
 Alpha virt. eigenvalues --    0.97391   0.98383   1.00446   1.00502   1.01515
 Alpha virt. eigenvalues --    1.01732   1.03069   1.03767   1.04808   1.05290
 Alpha virt. eigenvalues --    1.06008   1.06088   1.06333   1.07083   1.07583
 Alpha virt. eigenvalues --    1.07930   1.08632   1.09290   1.09659   1.10589
 Alpha virt. eigenvalues --    1.12734   1.13046   1.16633   1.19321   1.20504
 Alpha virt. eigenvalues --    1.22805   1.23339   1.23942   1.24379   1.25121
 Alpha virt. eigenvalues --    1.25786   1.26310   1.27292   1.27527   1.28637
 Alpha virt. eigenvalues --    1.31262   1.34167   1.34331   1.35070   1.37604
 Alpha virt. eigenvalues --    1.38264   1.39166   1.39443   1.40119   1.41775
 Alpha virt. eigenvalues --    1.41835   1.44028   1.44367   1.45838   1.46468
 Alpha virt. eigenvalues --    1.47011   1.47790   1.48796   1.49385   1.50693
 Alpha virt. eigenvalues --    1.51562   1.51988   1.52940   1.53046   1.54424
 Alpha virt. eigenvalues --    1.55249   1.56114   1.57151   1.58185   1.59236
 Alpha virt. eigenvalues --    1.59371   1.59989   1.60712   1.61188   1.61686
 Alpha virt. eigenvalues --    1.62360   1.62713   1.63470   1.67525   1.67750
 Alpha virt. eigenvalues --    1.68397   1.68761   1.70095   1.71232   1.71496
 Alpha virt. eigenvalues --    1.72452   1.72826   1.73098   1.74460   1.75308
 Alpha virt. eigenvalues --    1.77032   1.78541   1.78998   1.79699   1.82118
 Alpha virt. eigenvalues --    1.82474   1.85423   1.87045   1.87409   1.88993
 Alpha virt. eigenvalues --    1.89077   1.89775   1.90898   1.91468   1.91554
 Alpha virt. eigenvalues --    1.93346   1.93928   1.94498   1.94802   1.95997
 Alpha virt. eigenvalues --    1.96690   1.97958   1.98438   1.99342   2.01105
 Alpha virt. eigenvalues --    2.01310   2.02592   2.03482   2.04417   2.04849
 Alpha virt. eigenvalues --    2.05332   2.06064   2.06660   2.06849   2.07701
 Alpha virt. eigenvalues --    2.08037   2.08921   2.09490   2.10145   2.10225
 Alpha virt. eigenvalues --    2.11935   2.12314   2.13225   2.13334   2.14102
 Alpha virt. eigenvalues --    2.14636   2.16099   2.16163   2.16726   2.17624
 Alpha virt. eigenvalues --    2.18540   2.19198   2.19302   2.19699   2.20484
 Alpha virt. eigenvalues --    2.21707   2.22173   2.22895   2.23871   2.23906
 Alpha virt. eigenvalues --    2.25252   2.27305   2.27551   2.27759   2.27896
 Alpha virt. eigenvalues --    2.29279   2.29926   2.32032   2.33274   2.35059
 Alpha virt. eigenvalues --    2.35537   2.37924   2.39383   2.39484   2.41791
 Alpha virt. eigenvalues --    2.45692   2.45845   2.46183   2.47805   2.48001
 Alpha virt. eigenvalues --    2.48245   2.48997   2.52537   2.53304   2.54611
 Alpha virt. eigenvalues --    2.55665   2.56624   2.57922   2.58476   2.64158
 Alpha virt. eigenvalues --    2.65066   2.65445   2.66403   2.66463   2.67617
 Alpha virt. eigenvalues --    2.67850   2.68579   2.69486   2.70251   2.70346
 Alpha virt. eigenvalues --    2.72209   2.72661   2.73659   2.75080   2.75136
 Alpha virt. eigenvalues --    2.76485   2.80064   2.82197   2.82480   2.82746
 Alpha virt. eigenvalues --    2.83420   2.84737   2.88864   2.88977   2.90112
 Alpha virt. eigenvalues --    2.91804   2.91873   2.95395   2.97273   2.97378
 Alpha virt. eigenvalues --    2.97971   2.98328   2.99158   2.99498   3.00282
 Alpha virt. eigenvalues --    3.01250   3.01730   3.01922   3.02274   3.04146
 Alpha virt. eigenvalues --    3.04433   3.04921   3.05556   3.06526   3.06797
 Alpha virt. eigenvalues --    3.08766   3.09808   3.10736   3.11925   3.12959
 Alpha virt. eigenvalues --    3.13506   3.13916   3.14834   3.14879   3.15106
 Alpha virt. eigenvalues --    3.16099   3.16227   3.16636   3.16899   3.17040
 Alpha virt. eigenvalues --    3.17689   3.18816   3.19367   3.19472   3.21650
 Alpha virt. eigenvalues --    3.21760   3.24680   3.24952   3.25495   3.26980
 Alpha virt. eigenvalues --    3.28425   3.28660   3.29169   3.30981   3.31043
 Alpha virt. eigenvalues --    3.31796   3.31938   3.32197   3.32635   3.38168
 Alpha virt. eigenvalues --    3.38863   3.39674   3.40840   3.44029   3.44474
 Alpha virt. eigenvalues --    3.45184   3.45264   3.45719   3.46002   3.46559
 Alpha virt. eigenvalues --    3.47933   3.48600   3.48661   3.49606   3.50473
 Alpha virt. eigenvalues --    3.50801   3.50913   3.51992   3.52774   3.54433
 Alpha virt. eigenvalues --    3.54665   3.56340   3.57148   3.57974   3.59423
 Alpha virt. eigenvalues --    3.60793   3.61308   3.62415   3.63731   3.64298
 Alpha virt. eigenvalues --    3.65068   3.65844   3.65968   3.67345   3.67699
 Alpha virt. eigenvalues --    3.69636   3.71397   3.72534   3.74520   3.76237
 Alpha virt. eigenvalues --    3.78399   3.80405   3.80555   3.81265   3.81812
 Alpha virt. eigenvalues --    3.82769   3.84078   3.84818   3.86282   3.87598
 Alpha virt. eigenvalues --    3.89138   3.92296   3.93832   3.94126   3.94446
 Alpha virt. eigenvalues --    3.94938   3.95289   3.95543   3.95963   3.96704
 Alpha virt. eigenvalues --    3.97815   3.98153   3.98327   3.98543   3.99659
 Alpha virt. eigenvalues --    4.00651   4.00911   4.01394   4.05526   4.06560
 Alpha virt. eigenvalues --    4.07115   4.09307   4.12971   4.14951   4.15074
 Alpha virt. eigenvalues --    4.16792   4.17524   4.19243   4.20044   4.21278
 Alpha virt. eigenvalues --    4.21730   4.22949   4.24146   4.24280   4.24492
 Alpha virt. eigenvalues --    4.26304   4.27557   4.30460   4.32224   4.44951
 Alpha virt. eigenvalues --    4.48139   4.48320   4.48772   4.51374   4.51834
 Alpha virt. eigenvalues --    4.54344   4.55818   4.57077   4.57614   4.60910
 Alpha virt. eigenvalues --    4.65651   5.17907   5.17958   5.24368   5.24415
 Alpha virt. eigenvalues --    5.24538   5.24562   5.25312   5.25638   5.25823
 Alpha virt. eigenvalues --    5.26157   5.26396   5.26541   5.26569   5.26966
 Alpha virt. eigenvalues --    5.27019   5.27481   5.27673   5.28851   5.28984
 Alpha virt. eigenvalues --    5.30479   5.30853   5.30858   5.31922   5.32456
 Alpha virt. eigenvalues --    5.32670   5.32875   5.32982   5.33600   5.34194
 Alpha virt. eigenvalues --    5.34329   5.35275   5.36388   5.37782   5.37983
 Alpha virt. eigenvalues --    5.40556   5.42414   5.43126   5.44317   5.44565
 Alpha virt. eigenvalues --    5.48360   5.48443   5.49841   5.50075   5.53037
 Alpha virt. eigenvalues --    5.53271   5.53805   5.54497   5.59197   5.59266
 Alpha virt. eigenvalues --    5.59873   5.59967   5.60087   5.61253   5.62409
 Alpha virt. eigenvalues --    5.63573   5.64035   5.64864   5.64936   5.69301
 Alpha virt. eigenvalues --    5.69665   5.70155   5.70569   5.70609   5.70702
 Alpha virt. eigenvalues --    5.70817   5.88294   5.89301   5.90804   5.94094
 Alpha virt. eigenvalues --    5.95128   5.96929   6.06079   6.06860   6.07372
 Alpha virt. eigenvalues --    6.08817   6.09455   6.10316   6.11160   6.12626
 Alpha virt. eigenvalues --    6.16756   6.17045   6.17688   6.17715   6.17830
 Alpha virt. eigenvalues --    6.18060   6.18483   6.18843   6.20423   6.20684
 Alpha virt. eigenvalues --    6.22189   6.26256   6.36470   6.37095   6.41195
 Alpha virt. eigenvalues --    6.44130   6.45121   6.45845   6.47023   6.47601
 Alpha virt. eigenvalues --    6.47953   6.48762   6.49464   6.49541   6.49977
 Alpha virt. eigenvalues --    6.50148   6.52886   6.54078   6.54904   6.55570
 Alpha virt. eigenvalues --    6.55752   6.58027   6.58034   6.58787   6.59622
 Alpha virt. eigenvalues --    6.59693   6.60311   6.61382   6.61460   6.63896
 Alpha virt. eigenvalues --    6.65197   6.65793   6.65981   6.67465   6.67839
 Alpha virt. eigenvalues --    6.68457   6.69575   6.70585   6.71602   6.75216
 Alpha virt. eigenvalues --    6.75630   6.76617   6.81396   6.85794   6.86508
 Alpha virt. eigenvalues --    6.86811   6.88529   6.88926   6.90709   6.90938
 Alpha virt. eigenvalues --    6.91555   6.91639   6.91981   6.92215   6.93451
 Alpha virt. eigenvalues --    6.93635   6.97205   6.97550   6.97644   6.98675
 Alpha virt. eigenvalues --    6.99061   7.05055   7.05089   7.06245   7.06433
 Alpha virt. eigenvalues --    7.07069   7.08622   7.09473   7.11465   7.11723
 Alpha virt. eigenvalues --    7.13035   7.13623   7.15017   7.24002   7.24384
 Alpha virt. eigenvalues --    7.24692   7.25476   7.26135   7.26371   7.27389
 Alpha virt. eigenvalues --    7.28255   7.28725   7.28766   7.29692   7.30611
 Alpha virt. eigenvalues --    7.33390   7.33494   7.34783   7.36596   7.40081
 Alpha virt. eigenvalues --    7.42866  23.22363  23.22721  23.22874  23.23367
 Alpha virt. eigenvalues --   23.23469  23.25504  43.68354  43.70029  43.81733
 Alpha virt. eigenvalues --   43.89181  43.93928  43.97924  43.98419  44.06044
 Alpha virt. eigenvalues --   44.12376  44.14912  44.17656  44.19449  44.29546
 Alpha virt. eigenvalues --   44.31233  44.31763
  Beta  occ. eigenvalues -- -255.61208-255.61001-255.60997 -29.94775 -29.94362
  Beta  occ. eigenvalues --  -29.94356 -25.75187 -25.74738 -25.74689 -25.74685
  Beta  occ. eigenvalues --  -25.74683 -25.74423 -25.74410 -25.74329 -25.74328
  Beta  occ. eigenvalues --  -19.01739 -19.01731 -18.97135 -18.97129 -18.97116
  Beta  occ. eigenvalues --  -18.97110 -18.97082 -18.97082 -18.97082 -18.97058
  Beta  occ. eigenvalues --  -18.97054 -18.97045 -18.96956 -18.96938 -18.93634
  Beta  occ. eigenvalues --  -10.17240 -10.17225 -10.17211 -10.17193 -10.17087
  Beta  occ. eigenvalues --  -10.17077  -3.38876  -3.38274  -3.38269  -2.13879
  Beta  occ. eigenvalues --   -2.13083  -2.13077  -2.13062  -2.13039  -2.12680
  Beta  occ. eigenvalues --   -2.12663  -2.12579  -2.12573  -1.05616  -1.05353
  Beta  occ. eigenvalues --   -1.05350  -1.05062  -1.04986  -1.04958  -1.03722
  Beta  occ. eigenvalues --   -1.03695  -0.97617  -0.97574  -0.97321  -0.97207
  Beta  occ. eigenvalues --   -0.97154  -0.97071  -0.88233  -0.58241  -0.57516
  Beta  occ. eigenvalues --   -0.57261  -0.56884  -0.56780  -0.56598  -0.53806
  Beta  occ. eigenvalues --   -0.53743  -0.47690  -0.47581  -0.46575  -0.46271
  Beta  occ. eigenvalues --   -0.46011  -0.45917  -0.45686  -0.45642  -0.45223
  Beta  occ. eigenvalues --   -0.45162  -0.44889  -0.44849  -0.42230  -0.41420
  Beta  occ. eigenvalues --   -0.41383  -0.41054  -0.41018  -0.40406  -0.39627
  Beta  occ. eigenvalues --   -0.39460  -0.35529  -0.35308  -0.33855  -0.33487
  Beta  occ. eigenvalues --   -0.30796  -0.30716  -0.30597  -0.29790  -0.28860
  Beta  occ. eigenvalues --   -0.28620  -0.28577  -0.28403  -0.28306  -0.28126
  Beta  occ. eigenvalues --   -0.27984  -0.27499  -0.27358  -0.27141  -0.27059
  Beta  occ. eigenvalues --   -0.26450  -0.26346  -0.26282  -0.24880  -0.16782
  Beta virt. eigenvalues --   -0.15084  -0.14995  -0.14948  -0.14754  -0.14517
  Beta virt. eigenvalues --   -0.14140  -0.13615  -0.10934  -0.10801  -0.08553
  Beta virt. eigenvalues --   -0.07786  -0.07730  -0.07390  -0.06864  -0.02332
  Beta virt. eigenvalues --   -0.02298  -0.02221  -0.02087  -0.01283  -0.01082
  Beta virt. eigenvalues --    0.02273   0.02936   0.04455   0.07940   0.08112
  Beta virt. eigenvalues --    0.08359   0.08664   0.08973   0.09359   0.09549
  Beta virt. eigenvalues --    0.10146   0.10423   0.11549   0.13304   0.14238
  Beta virt. eigenvalues --    0.15609   0.15654   0.17283   0.17760   0.18458
  Beta virt. eigenvalues --    0.19024   0.19389   0.19579   0.20584   0.22208
  Beta virt. eigenvalues --    0.22221   0.23228   0.23579   0.23620   0.24188
  Beta virt. eigenvalues --    0.24388   0.24787   0.26099   0.26768   0.27371
  Beta virt. eigenvalues --    0.27751   0.28007   0.28211   0.28375   0.29425
  Beta virt. eigenvalues --    0.29497   0.30432   0.30672   0.30761   0.31404
  Beta virt. eigenvalues --    0.31952   0.32162   0.32476   0.32910   0.33959
  Beta virt. eigenvalues --    0.34515   0.35789   0.36052   0.36142   0.36283
  Beta virt. eigenvalues --    0.37772   0.38008   0.38996   0.39230   0.39301
  Beta virt. eigenvalues --    0.40515   0.40580   0.40874   0.41360   0.41455
  Beta virt. eigenvalues --    0.41508   0.42174   0.42260   0.42742   0.42994
  Beta virt. eigenvalues --    0.43122   0.44149   0.44375   0.44918   0.45475
  Beta virt. eigenvalues --    0.45530   0.46034   0.47251   0.48250   0.49086
  Beta virt. eigenvalues --    0.50128   0.50970   0.51314   0.51855   0.53041
  Beta virt. eigenvalues --    0.53101   0.53500   0.54288   0.54549   0.54897
  Beta virt. eigenvalues --    0.55533   0.56398   0.56660   0.57589   0.57738
  Beta virt. eigenvalues --    0.59223   0.59444   0.60161   0.61076   0.62255
  Beta virt. eigenvalues --    0.63372   0.63908   0.63974   0.64448   0.64618
  Beta virt. eigenvalues --    0.66027   0.66877   0.68024   0.68481   0.69037
  Beta virt. eigenvalues --    0.69173   0.70226   0.70685   0.71030   0.71149
  Beta virt. eigenvalues --    0.71835   0.71951   0.72547   0.73207   0.74226
  Beta virt. eigenvalues --    0.74242   0.75072   0.75244   0.75827   0.76411
  Beta virt. eigenvalues --    0.76917   0.76971   0.77156   0.77734   0.78022
  Beta virt. eigenvalues --    0.79553   0.80667   0.81984   0.83642   0.84058
  Beta virt. eigenvalues --    0.85206   0.85402   0.86492   0.87923   0.89184
  Beta virt. eigenvalues --    0.89992   0.90471   0.91521   0.91959   0.92279
  Beta virt. eigenvalues --    0.93260   0.93573   0.93961   0.94913   0.96191
  Beta virt. eigenvalues --    0.96430   0.96938   0.97323   0.98177   0.98355
  Beta virt. eigenvalues --    0.99729   1.01339   1.01384   1.03005   1.03270
  Beta virt. eigenvalues --    1.04755   1.05102   1.05554   1.06200   1.07337
  Beta virt. eigenvalues --    1.07561   1.07605   1.08168   1.08962   1.09610
  Beta virt. eigenvalues --    1.10542   1.10784   1.11543   1.12650   1.14289
  Beta virt. eigenvalues --    1.15480   1.18373   1.21044   1.21264   1.23761
  Beta virt. eigenvalues --    1.24255   1.24995   1.25063   1.25563   1.26561
  Beta virt. eigenvalues --    1.27213   1.27793   1.28447   1.29396   1.32107
  Beta virt. eigenvalues --    1.35140   1.35224   1.35933   1.38378   1.38753
  Beta virt. eigenvalues --    1.39930   1.40303   1.41135   1.42370   1.42458
  Beta virt. eigenvalues --    1.45149   1.45685   1.46319   1.47518   1.47939
  Beta virt. eigenvalues --    1.48313   1.49865   1.49974   1.51171   1.52151
  Beta virt. eigenvalues --    1.52952   1.53792   1.53891   1.54954   1.56326
  Beta virt. eigenvalues --    1.57220   1.57631   1.58677   1.59902   1.59955
  Beta virt. eigenvalues --    1.60541   1.61356   1.61779   1.61934   1.62858
  Beta virt. eigenvalues --    1.63037   1.64230   1.67999   1.68087   1.68872
  Beta virt. eigenvalues --    1.69220   1.70884   1.71814   1.72199   1.72843
  Beta virt. eigenvalues --    1.73249   1.73695   1.74959   1.75845   1.77459
  Beta virt. eigenvalues --    1.78752   1.80017   1.80224   1.83041   1.83244
  Beta virt. eigenvalues --    1.86192   1.87636   1.88351   1.89323   1.89371
  Beta virt. eigenvalues --    1.91052   1.92327   1.92542   1.92765   1.93996
  Beta virt. eigenvalues --    1.94790   1.95310   1.95480   1.96719   1.97479
  Beta virt. eigenvalues --    1.99013   1.99390   2.00028   2.02219   2.02951
  Beta virt. eigenvalues --    2.04749   2.05046   2.05494   2.06018   2.06179
  Beta virt. eigenvalues --    2.07238   2.07802   2.08159   2.08557   2.09523
  Beta virt. eigenvalues --    2.10916   2.11014   2.11431   2.12251   2.13091
  Beta virt. eigenvalues --    2.13485   2.14143   2.14625   2.15453   2.15773
  Beta virt. eigenvalues --    2.17293   2.17599   2.18507   2.18540   2.19267
  Beta virt. eigenvalues --    2.20446   2.20908   2.21076   2.22076   2.22817
  Beta virt. eigenvalues --    2.23245   2.24365   2.25462   2.25928   2.26532
  Beta virt. eigenvalues --    2.28094   2.28682   2.29755   2.31549   2.31775
  Beta virt. eigenvalues --    2.32326   2.34415   2.34769   2.38191   2.38287
  Beta virt. eigenvalues --    2.39123   2.39842   2.41050   2.44412   2.46072
  Beta virt. eigenvalues --    2.46848   2.47257   2.48611   2.49356   2.49931
  Beta virt. eigenvalues --    2.50149   2.53081   2.53803   2.56118   2.57115
  Beta virt. eigenvalues --    2.57578   2.59239   2.59943   2.65085   2.66178
  Beta virt. eigenvalues --    2.66672   2.67253   2.67526   2.68344   2.68668
  Beta virt. eigenvalues --    2.69224   2.70031   2.70985   2.71033   2.73036
  Beta virt. eigenvalues --    2.73525   2.74799   2.76280   2.77090   2.77516
  Beta virt. eigenvalues --    2.81118   2.82816   2.83157   2.84146   2.84230
  Beta virt. eigenvalues --    2.86657   2.90611   2.90885   2.92538   2.93458
  Beta virt. eigenvalues --    2.93771   2.96168   2.98469   2.98626   2.99213
  Beta virt. eigenvalues --    2.99806   3.00013   3.00847   3.00976   3.01802
  Beta virt. eigenvalues --    3.02418   3.02721   3.03142   3.04945   3.05332
  Beta virt. eigenvalues --    3.06233   3.06734   3.07636   3.07903   3.09874
  Beta virt. eigenvalues --    3.10608   3.11482   3.13123   3.13644   3.14181
  Beta virt. eigenvalues --    3.14294   3.15478   3.15532   3.15687   3.16414
  Beta virt. eigenvalues --    3.16448   3.17062   3.17364   3.17515   3.17964
  Beta virt. eigenvalues --    3.19622   3.19883   3.20944   3.22834   3.23379
  Beta virt. eigenvalues --    3.25244   3.25738   3.26372   3.27407   3.29130
  Beta virt. eigenvalues --    3.29804   3.30448   3.31919   3.32395   3.32677
  Beta virt. eigenvalues --    3.33162   3.33308   3.33675   3.39108   3.40124
  Beta virt. eigenvalues --    3.41382   3.42102   3.46781   3.47749   3.48147
  Beta virt. eigenvalues --    3.48418   3.48784   3.48997   3.49116   3.49515
  Beta virt. eigenvalues --    3.50592   3.50838   3.51008   3.51575   3.51850
  Beta virt. eigenvalues --    3.51974   3.52821   3.54733   3.56595   3.56976
  Beta virt. eigenvalues --    3.58530   3.60316   3.61328   3.62814   3.64812
  Beta virt. eigenvalues --    3.65151   3.66690   3.67307   3.68941   3.69423
  Beta virt. eigenvalues --    3.71369   3.73376   3.73697   3.74998   3.75428
  Beta virt. eigenvalues --    3.76702   3.77517   3.80644   3.80787   3.81860
  Beta virt. eigenvalues --    3.82015   3.83256   3.83760   3.84481   3.84964
  Beta virt. eigenvalues --    3.85715   3.88534   3.91029   3.91850   3.95114
  Beta virt. eigenvalues --    3.97841   4.01400   4.01430   4.03692   4.04781
  Beta virt. eigenvalues --    4.06532   4.10527   4.11014   4.12035   4.12381
  Beta virt. eigenvalues --    4.12497   4.12838   4.13156   4.13266   4.13577
  Beta virt. eigenvalues --    4.13605   4.14679   4.17037   4.17212   4.19460
  Beta virt. eigenvalues --    4.20561   4.20847   4.22141   4.22292   4.24220
  Beta virt. eigenvalues --    4.24573   4.29506   4.30661   4.31251   4.31338
  Beta virt. eigenvalues --    4.32529   4.33099   4.33976   4.35218   4.36685
  Beta virt. eigenvalues --    4.37923   4.38876   4.40152   4.45749   4.48879
  Beta virt. eigenvalues --    4.49050   4.49398   4.52080   4.52620   4.55042
  Beta virt. eigenvalues --    4.57979   4.58295   4.59018   4.61836   4.66899
  Beta virt. eigenvalues --    5.18450   5.18532   5.25530   5.25586   5.25598
  Beta virt. eigenvalues --    5.25858   5.26617   5.26691   5.26949   5.27250
  Beta virt. eigenvalues --    5.27434   5.27619   5.27645   5.28073   5.28641
  Beta virt. eigenvalues --    5.28677   5.28804   5.30523   5.30661   5.31918
[...]
 354,-0.00036817,0.00002811,-0.00013545,0.00015763,0.00173534,0.0006888
 9,-0.00088047,-0.00051790,0.00094236,0.00112179,0.00109296,-0.02605336
 ,-0.00070085,-0.00233871,-0.00081284,0.00275675,-0.01003048,-0.0068491
 5,-0.00604784,-0.00234145,0.00045973,-0.00016279,-0.00000333,-0.002888
 26,0.00001443,0.00008060,-0.00092991,-0.00028503,-0.00035926,-0.000058
 34,0.00027079,0.00172217,0.00041398,0.00054285,-0.00066327,-0.00016023
 ,-0.00042409,0.03962938,0.07669334,0.00002227,-0.00006414,0.00002229,0
 .00001633,-0.00010090,0.00004074,0.00000503,0.00009312,0.00003744,0.00
 000101,0.00001212,0.00000462,-0.00221668,0.00162754,-0.00076738,-0.000
 38635,0.00090431,0.00065335,0.00107809,-0.00117856,-0.00037924,-0.0001
 0680,0.00004770,-0.00002223,-0.00038844,-0.00227206,0.00036774,0.00094
 457,-0.00311025,0.00043062,0.00644530,-0.00544239,-0.00289574,-0.00280
 715,0.00213635,0.00243482,0.00007824,-0.00005004,-0.00019314,-0.000037
 73,-0.00002512,0.00012051,-0.00005518,-0.00003368,0.00012126,0.0000292
 5,0.00000613,-0.00002826,-0.00000290,-0.00000520,-0.00000393,-0.000316
 69,0.00012091,-0.00117835,0.00042735,0.00149229,0.00095197,-0.00017818
 ,0.00535144,-0.00727755,0.00223314,0.00301013,-0.00199505,-0.00492878,
 -0.00431513,-0.00000900,0.00046854,0.00048909,-0.00134559,-0.00002524,
 0.00103884,0.00071669,-0.00145110,-0.00197149,-0.00013403,0.00012070,0
 .00006805,-0.00004309,0.00217430,0.00156221,0.00131051,-0.00005941,-0.
 00005041,-0.00015509,-0.02307994,-0.05777166,0.44095208,-0.00011237,-0
 .00003889,0.00009758,-0.00008967,0.00004184,0.00000973,0.00011792,0.00
 000620,-0.00002359,0.00000405,0.00000978,0.00000308,-0.00019236,-0.000
 76218,0.00040014,-0.00003919,-0.00059150,-0.00022347,-0.00066993,0.000
 78958,-0.00007272,-0.00002233,0.00001506,-0.00007261,0.00006729,0.0011
 5492,-0.00022424,0.00100977,-0.00267786,0.00085181,-0.00135570,-0.0017
 4352,-0.00075139,-0.00380884,0.00322979,0.00194581,-0.00000897,-0.0000
 0207,-0.00002661,-0.00005033,0.00001828,-0.00000853,-0.00007884,0.0000
 2124,0.00000673,0.00006548,-0.00000033,0.00000273,0.00000090,0.0000046
 8,-0.00000868,0.00024997,-0.00035816,0.00018307,0.00004509,0.00034955,
 0.00007535,0.00443582,-0.00494581,-0.00011684,0.00022704,0.00060643,-0
 .00043705,0.00090325,0.00119150,-0.00001042,0.00076270,0.00090564,-0.0
 0064228,-0.00031418,0.00032569,0.00015295,-0.00026392,-0.00034693,0.00
 010166,0.00003406,-0.00000332,0.00000439,-0.00076088,-0.00127864,-0.00
 036082,0.00004250,0.00000964,0.00000932,-0.25933750,-0.03677109,0.1881
 2616,0.28771800,0.00014618,0.00020863,0.00007949,0.00004324,0.00017164
 ,0.00006748,-0.00014288,-0.00014242,-0.00011164,0.00000398,0.00003575,
 0.00005170,-0.00020278,0.00000196,-0.00075773,-0.00017859,-0.00019052,
 -0.00054227,0.00040059,0.00026118,0.00048292,-0.00013034,-0.00004977,-
 0.00003781,0.00019972,-0.00025848,0.00019280,-0.00170376,0.00407867,-0
 .00036385,-0.00312698,0.00220021,0.00301489,0.00478792,-0.00349180,-0.
 00322925,-0.00039604,0.00006641,0.00040509,-0.00008019,0.00020362,-0.0
 0014072,0.00000642,0.00010839,-0.00014442,0.00005630,-0.00009366,0.000
 10211,-0.00001225,0.00004462,-0.00004923,-0.00018950,0.00030692,0.0002
 5574,0.00004493,-0.00083241,-0.00049385,-0.00681197,-0.00649999,0.0090
 5606,-0.00052631,-0.00113757,0.00061708,0.00019868,-0.00064354,-0.0010
 0734,-0.00009008,-0.00107918,0.00111619,0.00007218,-0.00037117,-0.0004
 1289,0.00054983,0.00096917,0.00010390,-0.00003045,-0.00003668,-0.00004
 728,-0.00003933,0.00011399,-0.00033911,0.00000451,-0.00001181,0.000123
 08,-0.04245648,-0.02049765,0.04683436,0.04783068,0.02597060,0.00003576
 ,0.00005379,-0.00012456,0.00004527,-0.00004569,0.00000834,-0.00004209,
 -0.00001814,0.00001431,-0.00000317,-0.00001132,-0.00000666,0.00043133,
 -0.00100823,0.00014966,0.00024656,-0.00068853,-0.00045247,-0.00091128,
 0.00094980,0.00021697,0.00001005,0.00000672,-0.00001974,-0.00011362,-0
 .00011640,0.00016095,-0.00070173,0.00245522,-0.00039252,-0.00049757,0.
 00084714,-0.00144379,0.00266760,-0.00251070,-0.00209794,0.00004254,-0.
 00002330,0.00006010,-0.00002842,-0.00000291,-0.00006823,-0.00001337,-0
 .00000111,-0.00002459,0.00005518,-0.00000126,-0.00000192,0.00000229,0.
 00000643,0.00000519,-0.00014070,-0.00013778,0.00002379,0.00007362,0.00
 008869,-0.00007029,0.00105908,0.00451042,0.00062999,0.00033285,0.00020
 622,-0.00029185,-0.00005989,-0.00106513,-0.00104730,-0.00028050,-0.000
 43581,0.00102492,0.00011973,0.00009791,-0.00029706,-0.00019581,-0.0000
 0705,0.00007742,0.00003800,0.00000669,-0.00001478,0.00014225,-0.000022
 36,-0.00005810,-0.00004787,-0.00000015,-0.00001375,0.24361989,0.055078
 72,-0.26847736,-0.22298513,-0.05483966,0.25909098,-0.00010801,-0.00007
 397,-0.00003410,-0.00017569,0.00005496,-0.00006737,0.00017397,0.000017
 90,-0.00000057,0.00000126,-0.00002028,-0.00000817,0.00016987,-0.000343
 19,0.00026897,0.00008228,-0.00016973,0.00000884,-0.00018802,0.00014221
 ,-0.00008797,0.00002239,0.00001547,-0.00000499,0.00033070,0.00274012,-
 0.00111720,0.00028072,-0.00107190,0.00011083,0.00103717,-0.00118230,-0
 .00042343,-0.00077005,0.00112754,0.00063414,0.00004809,-0.00000231,-0.
 00004430,-0.00003618,-0.00002713,0.00002607,-0.00002934,-0.00003432,0.
 00000831,0.00002570,0.00002376,-0.00002751,0.00000270,-0.00000960,0.00
 001501,0.00110121,-0.00075132,0.00052106,-0.00018072,0.00039396,0.0001
 8687,0.00172469,0.00745477,-0.00170285,-0.00051326,0.00041448,-0.00016
 009,-0.00158895,0.00139592,0.00044557,0.00006691,0.00033005,-0.0002053
 1,-0.00039079,-0.00040426,-0.00007945,-0.00025518,-0.00060810,0.000164
 69,-0.00002981,-0.00001360,0.00008397,-0.00383006,-0.00385933,-0.00095
 852,-0.00008767,-0.00001844,0.00001439,-0.36953192,-0.00322691,-0.1661
 2988,-0.02850858,0.00182307,-0.02288447,0.40115857,-0.00007893,0.00019
 603,0.00018702,-0.00018610,0.00028761,0.00019761,0.00016365,-0.0001938
 3,-0.00022380,0.00000713,0.00004586,0.00004605,0.00069597,-0.00104409,
 0.00040815,-0.00001299,-0.00076350,-0.00040215,-0.00059189,0.00081526,
 0.00020518,0.00001933,-0.00002360,-0.00005896,0.00118304,0.00485162,-0
 .00109207,-0.00006275,-0.00045457,0.00022743,-0.00016798,-0.00087026,-
 0.00096720,-0.00015256,0.00026533,-0.00023747,0.00003763,-0.00001356,0
 .00011296,-0.00009916,0.00018431,-0.00028612,-0.00003400,0.00023474,-0
 .00017543,0.00007775,-0.00013541,0.00014608,-0.00000638,0.00005495,-0.
 00004321,0.00071390,-0.00135659,0.00126766,0.00006657,-0.00006812,-0.0
 0060980,0.01032914,-0.00464850,0.00698377,0.00009119,0.00015649,-0.000
 98537,0.00344049,0.00271887,0.00242763,0.00039998,0.00014558,0.0001661
 5,-0.00026844,-0.00004594,-0.00047123,-0.00051099,0.00005320,0.0006440
 7,0.00013981,-0.00003105,-0.00004779,-0.00594458,-0.00489433,-0.001937
 80,0.00048359,0.00013185,0.00028875,0.00150428,-0.01379519,0.01167007,
 -0.00701419,0.00054264,-0.00343061,-0.00410926,0.01755118,-0.00004378,
 -0.00005944,-0.00006049,-0.00010146,0.00004496,-0.00010704,0.00007527,
 0.00001076,0.00002405,-0.00000041,-0.00001572,0.00000083,-0.00033918,0
 .00024778,-0.00019761,-0.00006331,0.00010115,-0.00003129,0.00015705,-0
 .00001278,0.00002313,-0.00003790,-0.00000208,-0.00000509,0.00028304,0.
 00202855,-0.00036235,0.00012504,0.00013827,0.00002551,-0.00020030,-0.0
 0074138,-0.00100382,0.00000209,-0.00032006,-0.00010314,0.00004004,0.00
 000208,-0.00002945,0.00003124,-0.00001101,-0.00001897,0.00003762,-0.00
 000742,-0.00001443,-0.00005240,0.00001676,-0.00000396,-0.00000414,0.00
 000197,-0.00000053,0.00039755,-0.00004442,0.00090950,-0.00024365,-0.00
 104314,-0.00060205,-0.00222095,0.00309415,0.00137946,-0.00027247,-0.00
 142360,0.00042967,0.00064238,0.00058334,-0.00163632,-0.00000426,-0.000
 04145,0.00005738,-0.00014911,-0.00019245,-0.00023726,0.00109753,0.0015
 2721,-0.00002473,-0.00001128,-0.00000125,-0.00003303,-0.00219256,-0.00
 202207,-0.00120306,-0.00000608,-0.00001580,0.00009329,-0.22238360,0.01
 213832,-0.16329569,0.03399247,0.00002162,0.01347435,0.19144180,-0.0139
 7637,0.15253848,-0.00374552,-0.00207382,-0.00303472,-0.00032085,-0.000
 56951,-0.00062984,0.00055314,0.00081576,0.00026270,-0.00025307,-0.0003
 5242,-0.00017375,0.00181383,-0.00045717,0.00078026,0.00226918,0.005242
 73,0.00324011,-0.00083088,0.00198667,0.00040881,0.00013095,0.00033947,
 0.00040770,-0.00042103,0.00039548,-0.00046274,0.00140556,0.00067133,-0
 .00105029,0.00149185,-0.00046172,-0.00132324,-0.00101868,0.00158653,0.
 00034000,0.00006654,0.00023449,-0.00025250,-0.00261234,-0.00037023,0.0
 0004196,-0.01231015,-0.00554493,0.01000610,0.00286384,0.00220736,-0.00
 123130,-0.00040889,-0.00056790,0.00047424,0.00180624,0.00057758,0.0006
 2531,-0.00041540,0.00027846,0.00049873,-0.00118763,-0.00216563,0.00010
 405,-0.00036531,0.00032056,0.00061805,-0.00040205,0.00034608,-0.000275
 42,-0.02263361,0.00586016,0.00160490,-0.00259337,0.00118435,0.00023742
 ,0.00030695,-0.00021968,-0.00048825,-0.00011573,0.00004949,0.00014599,
 0.00024138,-0.00033842,0.00033407,-0.00012193,0.00006168,-0.00012796,0
 .00007251,0.00079547,-0.00010192,-0.00014782,-0.00017959,0.00004343,0.
 00001226,-0.00026014,0.00000458,0.20814396,-0.00261918,0.00060632,-0.0
 0093416,-0.00172029,0.00101068,0.00103009,0.00264622,0.00059360,-0.000
 09186,0.00003514,0.00000326,0.00016066,0.00268108,-0.00317116,0.000095
 57,0.00373114,-0.01498160,-0.01065374,-0.00017171,0.00545385,0.0022919
 7,-0.00021016,-0.00058580,-0.00035133,0.00022407,-0.00009991,0.0000629
 4,0.00126358,-0.00344752,0.00288962,0.00040107,-0.00075360,0.00024969,
 -0.00004868,0.00159800,-0.00033780,-0.00015693,-0.00028714,0.00007095,
 -0.00325038,0.00124119,-0.00078717,-0.00470067,0.00120518,0.00293544,0
 .00427183,0.00191734,-0.00139628,-0.00002789,-0.00002591,-0.00015425,0
 .00057245,-0.00203977,0.00019378,0.00022516,0.00014413,-0.00006739,-0.
 00131385,0.00098706,-0.00060080,0.00029540,0.00011278,-0.00018869,0.00
 013854,0.00002628,0.00008361,0.00674667,-0.01359255,-0.00035300,0.0008
 4939,-0.00054107,-0.00020860,-0.00024148,-0.00024259,0.00013277,0.0000
 4229,-0.00002417,-0.00008407,-0.00012585,0.00000474,-0.00010716,0.0000
 4837,-0.00003609,0.00007472,0.00011249,-0.00033063,0.00000117,-0.00006
 992,0.00015593,0.00000099,-0.00006385,0.00011112,-0.00002283,0.2364211
 0,0.52720963,-0.00323718,-0.00074912,-0.00094085,-0.00125670,0.0003334
 8,0.00112631,0.00210297,0.00030468,-0.00048102,-0.00008720,-0.00003488
 ,-0.00001678,0.00212650,-0.00185917,0.00017259,0.00152648,-0.00862904,
 -0.00234087,-0.00035678,0.00307680,0.00206892,-0.00001196,-0.00011511,
 -0.00021563,0.00008738,-0.00000635,0.00017221,-0.00095233,0.00284404,-
 0.00100778,-0.00078329,0.00088847,0.00080958,0.00071896,-0.00180720,-0
 .00038099,0.00000054,0.00010829,-0.00000515,0.00294517,-0.00058670,0.0
 0024816,0.00826570,0.00340204,-0.00278719,-0.00288715,-0.00170699,0.00
 187549,0.00011518,0.00010240,-0.00021814,-0.00044727,0.00032863,-0.001
 30944,0.00012510,-0.00011196,-0.00003886,-0.00060860,-0.00016424,-0.00
 123073,0.00006581,-0.00009757,-0.00002355,0.00011560,0.00000029,0.0001
 3492,-0.00364485,0.00228217,-0.00685594,-0.00052402,0.00040472,0.00077
 863,-0.00009285,0.00010228,0.00009959,-0.00000002,-0.00000073,-0.00000
 522,-0.00004069,0.00001687,-0.00005743,0.00001697,-0.00000477,0.000005
 37,0.00004640,0.00003119,0.00012540,0.00002626,-0.00004784,-0.00009188
 ,0.00000991,-0.00004591,0.00000486,0.07137476,-0.03833723,0.42737654,-
 0.00098045,-0.00009123,-0.00031164,-0.00051842,0.00035388,0.00045500,0
 .00084702,0.00005439,-0.00022088,-0.00003587,0.00000297,0.00004310,0.0
 0172717,-0.00198811,-0.00012165,-0.00050318,-0.00469976,-0.00276696,-0
 .00012364,0.00309953,0.00169463,-0.00014291,-0.00041030,-0.00031014,0.
 00015685,-0.00015548,0.00011961,-0.00022519,-0.00013765,0.00059996,-0.
 00031701,0.00000473,0.00059312,0.00043399,-0.00005291,-0.00044939,-0.0
 0008142,-0.00009297,0.00008118,0.00033641,0.00010084,-0.00009682,0.000
 42496,0.00061190,0.00062960,-0.00047403,-0.00013269,0.00051419,-0.0000
 0464,0.00002005,-0.00012583,0.00008134,-0.00013665,-0.00031526,0.00015
 310,-0.00008446,-0.00007772,-0.00051133,0.00041218,-0.00063078,0.00016
 670,-0.00000351,-0.00014574,0.00009843,-0.00005584,0.00011346,-0.01077
 172,-0.00128014,-0.00687904,-0.00018927,0.00005977,0.00029531,-0.00012
 731,-0.00000719,0.00013096,0.00002975,-0.00001445,-0.00005338,-0.00005
 707,0.00009781,-0.00009195,0.00004039,-0.00002405,0.00004587,0.0000170
 7,-0.00025584,0.00004303,0.00001892,0.00008310,-0.00002996,-0.00001653
 ,0.00008447,-0.00000656,-0.11788992,-0.14963341,-0.12274810,0.13397533
 ,0.00116914,0.00000073,0.00048955,0.00060226,-0.00029968,-0.00034429,-
 0.00088600,-0.00011312,0.00005375,0.00002443,0.00002688,-0.00003005,-0
 .00363130,0.00349554,-0.00083895,-0.00268220,0.00339405,0.00313652,0.0
 0145263,-0.00775641,-0.00305012,0.00006791,0.00019191,0.00019679,-0.00
 007451,0.00001616,-0.00005357,-0.00065376,0.00001551,-0.00059184,-0.00
 034004,0.00013161,-0.00006726,0.00021009,-0.00074986,0.00034646,0.0000
 5316,0.00002010,0.00004169,0.00114086,-0.00047246,0.00022895,0.0016306
 1,0.00001431,-0.00074394,-0.00140640,-0.00014444,0.00036214,0.00003466
 ,0.00003649,0.00003625,-0.00027639,0.00049032,-0.00007001,-0.00006522,
 -0.00008661,0.00003569,0.00175374,0.00026265,0.00099971,-0.00020302,-0
 .00010816,-0.00003856,-0.00006363,-0.00006270,-0.00005738,0.00097134,0
 .00766082,0.00320081,0.00020230,-0.00053444,-0.00033697,0.00013231,0.0
 0013328,-0.00005168,-0.00000153,0.00000584,0.00001899,0.00005219,0.000
 01139,0.00003247,-0.00001351,0.00001048,-0.00001161,-0.00015800,-0.000
 00975,-0.00004186,0.00009017,-0.00005033,0.00004066,0.00003853,0.00002
 690,-0.00000169,-0.14053388,-0.21839248,-0.14066991,0.16051042,0.23559
 909,-0.00028026,-0.00024337,-0.00021573,-0.00008771,-0.00005657,-0.000
 09125,0.00003504,0.00017259,0.00008818,-0.00002104,-0.00003378,-0.0000
 1422,-0.00204133,0.00169345,-0.00016422,-0.00080637,0.00210093,-0.0007
 9884,0.00081837,-0.00360075,-0.00203454,0.00002796,0.00000685,0.000095
 25,-0.00001177,0.00003698,-0.00008109,0.00084811,-0.00077419,0.0000759
 2,0.00052039,-0.00054384,-0.00054943,-0.00054652,0.00127994,0.00022873
 ,-0.00000708,0.00000234,-0.00003384,0.00002096,0.00009424,0.00013810,0
 .00065016,-0.00058279,-0.00116216,0.00011726,-0.00010443,-0.00014897,0
 .00001556,0.00003692,-0.00000332,0.00019802,0.00004858,0.00004725,0.00
 000727,-0.00004474,0.00001402,0.00062148,0.00008675,0.00097019,-0.0000
 9378,-0.00001375,-0.00009293,-0.00000840,0.00002096,-0.00003930,-0.003
 52669,0.00070670,0.00171456,-0.00017055,-0.00005684,-0.00029309,0.0000
 4800,0.00002881,-0.00000707,0.00000755,-0.00000135,-0.00000236,-0.0000
 1442,-0.00006215,0.00001507,-0.00001006,0.00000314,0.00000053,-0.00002
 667,-0.00001534,-0.00008811,-0.00002048,0.00003792,0.00005914,-0.00000
 366,0.00002299,-0.00000214,-0.15271453,-0.18748643,-0.20819595,0.14050
 682,0.16377450,0.19669714,0.00059323,-0.00016716,0.00099932,0.00031512
 ,-0.00005860,0.00033615,-0.00080341,-0.00054705,-0.00049959,0.00002325
 ,0.00012172,-0.00000748,-0.00078970,0.00036301,-0.00016778,-0.00082201
 ,0.00092127,0.00100061,0.00047396,-0.00070370,-0.00005052,-0.00000508,
 0.00004275,-0.00009168,0.00013012,-0.00014608,0.00024201,-0.00075499,0
 .00105023,-0.00050159,-0.00062899,0.00037015,0.00040757,0.00043613,-0.
 00090113,-0.00012854,0.00000789,0.00004126,0.00005102,0.00528980,-0.00
 093087,0.00086791,0.00475836,0.00105709,-0.00373803,-0.00747407,-0.003
 41167,0.00305677,0.00023587,0.00029411,-0.00030391,-0.00113422,0.00145
 364,-0.00119886,0.00013890,-0.00033399,-0.00016710,0.00038949,0.000245
 38,-0.00013681,0.00006984,-0.00017609,-0.00015765,0.00018220,-0.000115
 17,0.00013093,0.00173740,0.00956705,-0.00654159,-0.00021825,-0.0002571
 2,0.00049797,-0.00004037,0.00028081,0.00019542,0.00002942,-0.00001157,
 -0.00004096,-0.00008346,0.00012148,-0.00011938,0.00004322,-0.00001991,
 0.00002958,-0.00001599,-0.00023391,0.00005909,0.00005864,0.00004620,-0
 .00002986,0.00000229,0.00006243,0.00000570,-0.05338402,-0.09635177,0.0
 4800932,-0.00553752,-0.01914740,0.01594836,0.05677696,0.00016964,-0.00
 065758,-0.00019617,0.00030559,-0.00038787,-0.00047633,-0.00066576,0.00
 020121,0.00018109,-0.00004751,-0.00008489,-0.00008652,-0.00058885,0.00
 054815,0.00003224,-0.00012992,0.00112916,-0.00023960,0.00050279,-0.000
 99282,-0.00065615,0.00002244,0.00002567,0.00007674,-0.00010994,0.00003
 778,-0.00013487,0.00003004,-0.00011099,-0.00011118,0.00014558,0.000005
 72,-0.00019211,-0.00013449,0.00013703,0.00017692,0.00002350,0.00000382
 ,-0.00002578,0.00016947,-0.00026855,0.00050248,-0.00093648,-0.00249043
 ,0.00086931,-0.00137187,-0.00014167,0.00013353,-0.00015899,-0.00021798
 ,0.00015383,0.00020551,0.00063701,0.00006448,-0.00008300,-0.00001580,0
 .00015101,0.00020411,-0.00018846,0.00024150,-0.00013563,0.00001632,0.0
 0011729,-0.00013152,0.00003537,-0.00006712,0.00709819,-0.00532201,0.00
 398587,-0.00043540,-0.00004325,-0.00007498,0.00010465,0.00001863,-0.00
 010845,-0.00002870,0.00001546,0.00002981,0.00007943,-0.00003278,0.0000
 7791,-0.00003062,0.00001577,-0.00002874,-0.00004857,0.00014652,-0.0000
 3294,0.00000373,-0.00005336,0.00001674,0.00001705,-0.00003500,-0.00000
 198,-0.10527969,-0.28382910,0.18074838,-0.00623940,-0.02276364,0.02346
 572,0.10747463,0.31466257,0.00139731,-0.00022568,0.00016587,0.00094490
 ,-0.00024220,-0.00073304,-0.00172199,-0.00030970,0.00028502,0.00000405
 ,-0.00000172,-0.00002517,0.00001516,-0.00018140,0.00008059,0.00081259,
 -0.00057834,-0.00127408,0.00016725,0.00007678,-0.00004920,-0.00002368,
 -0.00004800,-0.00002012,-0.00001602,-0.00001999,-0.00003948,-0.0000362
 5,0.00029177,-0.00017929,-0.00000716,0.00006061,-0.00006016,-0.0000935
 1,-0.00006452,0.00004920,0.00001508,0.00002972,-0.00001523,-0.00276339
 ,0.00066979,-0.00037963,-0.00211737,-0.00054107,-0.00078405,0.00366595
 ,0.00154677,-0.00195947,0.00000775,-0.00000957,0.00012583,0.00011802,-
 0.00053368,0.00112085,-0.00002497,0.00014529,-0.00010735,-0.00003239,-
 0.00002258,0.00003452,0.00006433,0.00003133,-0.00005526,-0.00002378,-0
 .00002711,-0.00002224,-0.00250485,0.00265392,0.00196066,0.00027782,0.0
 0005382,-0.00032686,-0.00003774,-0.00009652,0.00001639,0.00001262,-0.0
 0000629,0.00000218,0.00001102,0.00004158,0.00000164,-0.00000349,0.0000
 0605,-0.00000230,0.00002486,0.00000704,-0.00000121,-0.00000436,0.00000
 245,-0.00000132,-0.00000058,-0.00001027,0.00001196,0.07031328,0.231888
 85,-0.20879519,-0.01048404,-0.02599523,0.01387448,-0.05795643,-0.20859
 189,0.19710148\\-0.00000083,-0.00000490,0.00000425,-0.00000605,0.00000
 082,-0.00000411,-0.00000103,0.00000827,-0.00000189,-0.00000271,0.00000
 048,-0.00000684,-0.00000333,-0.00000870,0.00000254,-0.00000035,-0.0000
 0618,0.00001695,0.00000630,-0.00001135,0.00000149,0.00000005,-0.000005
 61,0.00000112,0.00002125,0.00000566,-0.00001616,0.00001196,-0.00001969
 ,-0.00000545,0.00000632,-0.00002907,0.00000992,-0.00000512,0.00002927,
 0.00000574,0.00000359,-0.00000037,0.00000412,-0.00000791,0.00000072,0.
 00000318,-0.00000137,-0.00001533,-0.00002219,-0.00000449,0.00000126,-0
 .00000908,-0.00000254,-0.00000541,-0.00000043,-0.00000272,0.00000515,-
 0.00001087,0.00000151,0.00000574,0.00000371,0.00007145,0.00003414,0.00
 001250,0.00001132,-0.00001521,0.00001497,-0.00000774,0.00001004,-0.000
 01255,-0.00004310,-0.00003971,-0.00001509,-0.00001460,0.00004629,0.000
 00707,-0.00000550,-0.00000086,-0.00000767,-0.00000435,0.00000218,-0.00
 000208,-0.00000657,-0.00000610,0.00001229,-0.00000345,0.00000134,0.000
 00546,-0.00000764,-0.00000161,0.00002137,0.00001067,0.00000137,0.00000
 703,-0.00002247,-0.00000571,-0.00001164,0.00002918,0.00005538,-0.00000
 262,-0.00000583,-0.00000027,-0.00001310,-0.00001388,-0.00003203,0.0000
 0807\\\@
 The archive entry for this job was punched.


 TIMES HAVE CHANGED. IN THE BIBLE WHEN AN ASS
 SPOKE IT WAS CONSIDERED A MIRACLE.
 Job cpu time:       0 days 23 hours 49 minutes 30.9 seconds.
 Elapsed time:       0 days 11 hours 59 minutes 26.5 seconds.
 File lengths (MBytes):  RWF=   4665 Int=      0 D2E=      0 Chk=    127 Scr=      1
 Normal termination of Gaussian 16 at Wed Feb  1 19:24:00 2023.
