 Entering Gaussian System, Link 0=g16
 Input=FeFeFe-TS1-2xH2O-QST2-H2O_relax-1xH2O-counterpoise-opt.gjf
 Output=FeFeFe-TS1-2xH2O-QST2-H2O_relax-1xH2O-counterpoise-opt.log
 AtFile(1): /zfs/curium/svicchi/00-MOF/01-Gaussian/zw-basis-set/def2-TZVP/H.gbs
            !----------------------------------------------------------------------
            ! Basis Set Exchange
            ! Version v0.9
            ! https://www.basissetexchange.org
            !----------------------------------------------------------------------
            !   Basis set: def2-TZVP
            ! Description: def2-TZVP
            !        Role: orbital
            !     Version: 1  (Data from Turbomole 7.3)
            !----------------------------------------------------------------------
            H     0
            S    3   1.00
                 34.0613410              0.60251978D-02
                  5.1235746              0.45021094D-01
                  1.1646626              0.20189726
            S    1   1.00
                  0.32723041             1.0000000
            S    1   1.00
                  0.10307241             1.0000000
            P    1   1.00
                  0.8000000              1.0000000
 AtFile(1): /zfs/curium/svicchi/00-MOF/01-Gaussian/zw-basis-set/def2-TZVP/O.gbs
            !----------------------------------------------------------------------
            ! Basis Set Exchange
            ! Version v0.9
            ! https://www.basissetexchange.org
            !----------------------------------------------------------------------
            !   Basis set: def2-TZVP
            ! Description: def2-TZVP
            !        Role: orbital
            !     Version: 1  (Data from Turbomole 7.3)
            !----------------------------------------------------------------------
            O     0
            S    6   1.00
              27032.3826310              0.21726302465D-03
               4052.3871392              0.16838662199D-02
                922.32722710             0.87395616265D-02
                261.24070989             0.35239968808D-01
                 85.354641351            0.11153519115
                 31.035035245            0.25588953961
            S    2   1.00
                 12.260860728            0.39768730901
                  4.9987076005           0.24627849430
            S    1   1.00
                  1.1703108158           1.0000000
            S    1   1.00
                  0.46474740994          1.0000000
            S    1   1.00
                  0.18504536357          1.0000000
            P    4   1.00
                 63.274954801            0.60685103418D-02
                 14.627049379            0.41912575824D-01
                  4.4501223456           0.16153841088
                  1.5275799647           0.35706951311
            P    1   1.00
                  0.52935117943           .44794207502
            P    1   1.00
                  0.17478421270           .24446069663
            D    1   1.00
                  2.31400000             1.0000000
            D    1   1.00
                  0.64500000             1.0000000
            F    1   1.00
                  1.42800000             1.0000000
 AtFile(1): /zfs/curium/svicchi/00-MOF/01-Gaussian/zw-basis-set/def2-TZVP/C.gbs
            !----------------------------------------------------------------------
            ! Basis Set Exchange
            ! Version v0.9
            ! https://www.basissetexchange.org
            !----------------------------------------------------------------------
            !   Basis set: def2-TZVP
            ! Description: def2-TZVP
            !        Role: orbital
            !     Version: 1  (Data from Turbomole 7.3)
            !----------------------------------------------------------------------
            C     0
            S    6   1.00
              13575.3496820              0.22245814352D-03
               2035.2333680              0.17232738252D-02
                463.22562359             0.89255715314D-02
                131.20019598             0.35727984502D-01
                 42.853015891            0.11076259931
                 15.584185766            0.24295627626
            S    2   1.00
                  6.2067138508           0.41440263448
                  2.5764896527           0.23744968655
            S    1   1.00
                  0.57696339419          1.0000000
            S    1   1.00
                  0.22972831358          1.0000000
            S    1   1.00
                  0.95164440028D-01      1.0000000
            P    4   1.00
                 34.697232244            0.53333657805D-02
                  7.9582622826           0.35864109092D-01
                  2.3780826883           0.14215873329
                  0.81433208183          0.34270471845
            P    1   1.00
                  0.28887547253           .46445822433
            P    1   1.00
                  0.10056823671           .24955789874
            D    1   1.00
                  1.09700000             1.0000000
            D    1   1.00
                  0.31800000             1.0000000
            F    1   1.00
                  0.76100000             1.0000000
 AtFile(1): /zfs/curium/svicchi/00-MOF/01-Gaussian/zw-basis-set/def2-TZVP/Fe.gbs
            !----------------------------------------------------------------------
            ! Basis Set Exchange
            ! Version v0.9
            ! https://www.basissetexchange.org
            !----------------------------------------------------------------------
            !   Basis set: def2-TZVP
            ! Description: def2-TZVP
            !        Role: orbital
            !     Version: 1  (Data from Turbomole 7.3)
            !----------------------------------------------------------------------
            Fe     0
            S    8   1.00
             300784.8463700              0.22806273096D-03
              45088.9705570              0.17681788761D-02
              10262.5163170              0.91927083490D-02
               2905.2897293              0.37355495807D-01
                946.11487137             0.12151108426
                339.87832894             0.28818881468
                131.94425588             0.41126612677
                 52.111494077            0.21518583573
            S    4   1.00
                329.48839267            -0.24745216477D-01
                101.92332739            -0.11683089050
                 16.240462745            0.55293621136
                  6.8840675801           0.53601640182
            S    2   1.00
                 10.470693782           -0.22912708577
                  1.7360039648           0.71159319984
            S    1   1.00
                  0.72577288979          1.0000000
            S    1   1.00
                  0.11595528203          1.0000000
            S    1   1.00
                  0.41968227746D-01      1.0000000
            P    6   1.00
               1585.3959970              0.23793960179D-02
                375.38006499             0.19253154755D-01
                120.31816501             0.90021836536D-01
                 44.788749031            0.25798172356
                 17.829278584            0.41492649744
                  7.2247153786           0.24207474784
            P    3   1.00
                 28.143219756           -0.29041755152D-01
                  3.8743241412           0.55312260343
                  1.5410752281           0.96771136842
            P    1   1.00
                  0.58285615250          1.0000000
            P    1   1.00
                  0.1349150              1.0000000
            D    4   1.00
                 61.996675034            0.11971972255D-01
                 17.873732552            0.73210135410D-01
                  6.2744782934           0.23103094314
                  2.3552337175           0.39910706494
            D    1   1.00
                  0.85432239901           .41391589765
            D    1   1.00
                  0.27869254413           .21909269782
            D    1   1.00
                  0.0910000              1.0000000
            F    1   1.00
                  1.5980000              1.0000000
 AtFile(1): /zfs/curium/svicchi/00-MOF/01-Gaussian/zw-basis-set/def2-TZVP/N.gbs
            !----------------------------------------------------------------------
            ! Basis Set Exchange
            ! Version v0.9
            ! https://www.basissetexchange.org
            !----------------------------------------------------------------------
            !   Basis set: def2-TZVP
            ! Description: def2-TZVP
            !        Role: orbital
            !     Version: 1  (Data from Turbomole 7.3)
            !----------------------------------------------------------------------
            N     0
            S    6   1.00
              19730.8006470              0.21887984991D-03
               2957.8958745              0.16960708803D-02
                673.22133595             0.87954603538D-02
                190.68249494             0.35359382605D-01
                 62.295441898            0.11095789217
                 22.654161182            0.24982972552
            S    2   1.00
                  8.9791477428           0.40623896148
                  3.6863002370           0.24338217176
            S    1   1.00
                  0.84660076805          1.0000000
            S    1   1.00
                  0.33647133771          1.0000000
            S    1   1.00
                  0.13647653675          1.0000000
            P    4   1.00
                 49.200380510            0.55552416751D-02
                 11.346790537            0.38052379723D-01
                  3.4273972411           0.14953671029
                  1.1785525134           0.34949305230
            P    1   1.00
                  0.41642204972           .45843153697
            P    1   1.00
                  0.14260826011           .24428771672
            D    1   1.00
                  1.65400000             1.0000000
            D    1   1.00
                  0.46900000             1.0000000
            F    1   1.00
                  1.09300000             1.0000000
 Initial command:
 /software/commercial/gaussian/g16/AVX2/g16/l1.exe "/scratch1/svicchi/G09-186670.pbs02/Gau-361709.inp" -scrdir="/scratch1/svicchi/G09-186670.pbs02/"
 Entering Link 1 = /software/commercial/gaussian/g16/AVX2/g16/l1.exe PID=    361710.
  
 Copyright (c) 1988-2021, Gaussian, Inc.  All Rights Reserved.
  
 This is part of the Gaussian(R) 16 program.  It is based on
 the Gaussian(R) 09 system (copyright 2009, Gaussian, Inc.),
 the Gaussian(R) 03 system (copyright 2003, Gaussian, Inc.),
 the Gaussian(R) 98 system (copyright 1998, Gaussian, Inc.),
 the Gaussian(R) 94 system (copyright 1995, Gaussian, Inc.),
 the Gaussian 92(TM) system (copyright 1992, Gaussian, Inc.),
 the Gaussian 90(TM) system (copyright 1990, Gaussian, Inc.),
 the Gaussian 88(TM) system (copyright 1988, Gaussian, Inc.),
 the Gaussian 86(TM) system (copyright 1986, Carnegie Mellon
 University), and the Gaussian 82(TM) system (copyright 1983,
 Carnegie Mellon University). Gaussian is a federally registered
 trademark of Gaussian, Inc.
  
 This software contains proprietary and confidential information,
 including trade secrets, belonging to Gaussian, Inc.
  
 This software is provided under written license and may be
 used, copied, transmitted, or stored only in accord with that
 written license.
  
 The following legend is applicable only to US Government
 contracts under FAR:
  
                    RESTRICTED RIGHTS LEGEND
  
 Use, reproduction and disclosure by the US Government is
 subject to restrictions as set forth in subparagraphs (a)
 and (c) of the Commercial Computer Software - Restricted
 Rights clause in FAR 52.227-19.
  
 Gaussian, Inc.
 340 Quinnipiac St., Bldg. 40, Wallingford CT 06492
  
  
 ---------------------------------------------------------------
 Warning -- This program may not be used in any manner that
 competes with the business of Gaussian, Inc. or will provide
 assistance to any competitor of Gaussian, Inc.  The licensee
 of this program is prohibited from giving any competitor of
 Gaussian, Inc. access to this program.  By using this program,
 the user acknowledges that Gaussian, Inc. is engaged in the
 business of creating and licensing software in the field of
 computational chemistry and represents and warrants to the
 licensee that it is not a competitor of Gaussian, Inc. and that
 it will not use this program in any manner prohibited above.
 ---------------------------------------------------------------
  

 Cite this work as:
 Gaussian 16, Revision C.02,
 M. J. Frisch, G. W. Trucks, H. B. Schlegel, G. E. Scuseria, 
 M. A. Robb, J. R. Cheeseman, G. Scalmani, V. Barone, 
 G. A. Petersson, H. Nakatsuji, X. Li, M. Caricato, A. V. Marenich, 
 J. Bloino, B. G. Janesko, R. Gomperts, B. Mennucci, H. P. Hratchian, 
 J. V. Ortiz, A. F. Izmaylov, J. L. Sonnenberg, D. Williams-Young, 
 F. Ding, F. Lipparini, F. Egidi, J. Goings, B. Peng, A. Petrone, 
 T. Henderson, D. Ranasinghe, V. G. Zakrzewski, J. Gao, N. Rega, 
 G. Zheng, W. Liang, M. Hada, M. Ehara, K. Toyota, R. Fukuda, 
 J. Hasegawa, M. Ishida, T. Nakajima, Y. Honda, O. Kitao, H. Nakai, 
 T. Vreven, K. Throssell, J. A. Montgomery, Jr., J. E. Peralta, 
 F. Ogliaro, M. J. Bearpark, J. J. Heyd, E. N. Brothers, K. N. Kudin, 
 V. N. Staroverov, T. A. Keith, R. Kobayashi, J. Normand, 
 K. Raghavachari, A. P. Rendell, J. C. Burant, S. S. Iyengar, 
 J. Tomasi, M. Cossi, J. M. Millam, M. Klene, C. Adamo, R. Cammi, 
 J. W. Ochterski, R. L. Martin, K. Morokuma, O. Farkas, 
 J. B. Foresman, and D. J. Fox, Gaussian, Inc., Wallingford CT, 2019.
 
 ******************************************
 Gaussian 16:  ES64L-G16RevC.02  7-Dec-2021
                24-Feb-2023 
 ******************************************
 %NProcShared=2
 Will use up to    2 processors via shared memory.
 %mem=110gb
 %chk=/scratch1/svicchi/G09-186670.pbs02/00-opt/FeFeFe-TS1-2xH2O-QST2-H2O_relax-1
 xH2O-counterpoise-opt.chk
 ----------------------------------------------------------------------
 #p gen um06l int=grid=ultrafine scf=(xqc,intrep,maxconventionalcycle=1
 50) pop=(hirshfeld) nosymm counterpoise=3
 ----------------------------------------------------------------------
 1/38=1,62=3,172=1/1;
 2/12=2,15=1,17=6,18=5,40=1/2;
 1/38=1,53=2,62=3,63=1/22;
 3/5=7,11=2,25=1,30=1,74=-53,75=-5,116=2/1,2,3;
 4//1;
 5/5=2,8=3,13=1,17=20,38=5,85=150/2,8;
 6/7=2,8=2,9=2,10=2,28=1,79=1/1;
 1/53=2,62=3,63=1/22;
 3/5=7,6=11,11=2,25=1,30=1,74=-53,75=-5,82=7,116=2/1,2,3;
 4//1;
 5/5=2,8=3,13=1,17=20,38=5,85=150/2,8;
 6/7=2,8=2,9=2,10=2,28=1,79=1/1;
 1/53=2,62=3,63=1/22(-4);
 99/5=1,9=1/99;
 Leave Link    1 at Fri Feb 24 15:56:16 2023, MaxMem= 14763950080 cpu:               0.0 elap:               2.9
 (Enter /software/commercial/gaussian/g16/AVX2/g16/l101.exe)
 ---------------
 FeFeFe-AO-1xH2O
 ---------------
 Symbolic Z-matrix:
 Charge =  0 Multiplicity =15 in supermolecule
 Charge =  0 Multiplicity =15 in fragment      1.
 Charge =  0 Multiplicity = 1 in fragment      2.
 Charge =  0 Multiplicity = 1 in fragment      3.
 O(fragment=1)        -0.04332   0.01161  -0.01925 
 O(fragment=1)        -0.00849   0.02075   2.23467 
 C(fragment=1)         0.5199    0.01203   1.11168 
 H(fragment=1)         1.62346   0.00674   1.08667 
 O(fragment=1)        -4.92722  -1.6181   -0.46631 
 O(fragment=1)        -3.85554   0.21881  -1.19839 
 C(fragment=1)        -4.85283  -0.52661  -1.08016 
 H(fragment=1)        -5.77792  -0.18479  -1.57807 
 O(fragment=1)        -1.37279  -2.20735   3.45947 
 O(fragment=1)        -1.73408  -1.61491  -1.57676 
 O(fragment=1)        -2.69964  -3.34988  -0.5108 
 C(fragment=1)        -2.01589  -2.82655  -1.41992 
 H(fragment=1)        -1.61117  -3.51987  -2.17734 
 O(fragment=1)        -2.48687   1.6526    2.45255 
 O(fragment=1)        -2.20165   1.8781    0.22901 
 C(fragment=1)        -2.47547   2.29422   1.39025 
 H(fragment=1)        -2.73893   3.3643    1.45664 
 Fe(fragment=1)       -1.86568  -0.20665   3.11196 
 O(fragment=1)        -3.81765  -0.61179   3.74403 
 Fe(fragment=1)       -3.68115  -2.43222   1.02492 
 O(fragment=1)        -5.10588  -1.84627   2.37024 
 O(fragment=1)        -2.80545  -3.56919   2.3778 
 Fe(fragment=1)       -2.0147   -0.03398  -0.31695 
 O(fragment=1)        -2.5564   -0.92858   1.19825 
 C(fragment=1)        -4.88327  -1.13809   3.39452 
 H(fragment=1)        -5.75833  -0.98158   4.05031 
 C(fragment=1)        -1.85597  -3.31123   3.17313 
 H(fragment=1)        -1.41738  -4.19555   3.66733 
 N(fragment=2)        -2.0302   -0.12813   6.00786 
 N(fragment=2)        -1.85001   0.05448   7.11862 
 O(fragment=1)        -1.32448   0.39336   4.75723 
 O(fragment=3)        -5.21898  -3.99124   0.77976 
 H(fragment=3)        -5.64652  -3.70415  -0.0387 
 H(fragment=3)        -5.82189  -3.70045   1.47953 
 
 ITRead=  0  0  0  0  0  0  0  0  0  0  0  0  0  0  0  0  0  0  0  0
 ITRead=  0  0  0  0  0  0  0  0  0  0  0  0  0  0
 MicOpt= -1 -1 -1 -1 -1 -1 -1 -1 -1 -1 -1 -1 -1 -1 -1 -1 -1 -1 -1 -1
 MicOpt= -1 -1 -1 -1 -1 -1 -1 -1 -1 -1 -1 -1 -1 -1
 NAtoms=     34 NQM=       34 NQMF=       0 NMMI=      0 NMMIF=      0
                NMic=       0 NMicF=      0.
                    Isotopes and Nuclear Properties:
 (Nuclear quadrupole moments (NQMom) in fm**2, nuclear magnetic moments (NMagM)
  in nuclear magnetons)

  Atom         1           2           3           4           5           6           7           8           9          10
 IAtWgt=          16          16          12           1          16          16          12           1          16          16
 AtmWgt=  15.9949146  15.9949146  12.0000000   1.0078250  15.9949146  15.9949146  12.0000000   1.0078250  15.9949146  15.9949146
 NucSpn=           0           0           0           1           0           0           0           1           0           0
 AtZEff=  -0.0000000  -0.0000000  -0.0000000  -0.0000000  -0.0000000  -0.0000000  -0.0000000  -0.0000000  -0.0000000  -0.0000000
 NQMom=    0.0000000   0.0000000   0.0000000   0.0000000   0.0000000   0.0000000   0.0000000   0.0000000   0.0000000   0.0000000
 NMagM=    0.0000000   0.0000000   0.0000000   2.7928460   0.0000000   0.0000000   0.0000000   2.7928460   0.0000000   0.0000000
 AtZNuc=   8.0000000   8.0000000   6.0000000   1.0000000   8.0000000   8.0000000   6.0000000   1.0000000   8.0000000   8.0000000

  Atom        11          12          13          14          15          16          17          18          19          20
 IAtWgt=          16          12           1          16          16          12           1          56          16          56
 AtmWgt=  15.9949146  12.0000000   1.0078250  15.9949146  15.9949146  12.0000000   1.0078250  55.9349393  15.9949146  55.9349393
 NucSpn=           0           0           1           0           0           0           1           0           0           0
 AtZEff=  -0.0000000  -0.0000000  -0.0000000  -0.0000000  -0.0000000  -0.0000000  -0.0000000  -0.0000000  -0.0000000  -0.0000000
 NQMom=    0.0000000   0.0000000   0.0000000   0.0000000   0.0000000   0.0000000   0.0000000   0.0000000   0.0000000   0.0000000
 NMagM=    0.0000000   0.0000000   2.7928460   0.0000000   0.0000000   0.0000000   2.7928460   0.0000000   0.0000000   0.0000000
 AtZNuc=   8.0000000   6.0000000   1.0000000   8.0000000   8.0000000   6.0000000   1.0000000  26.0000000   8.0000000  26.0000000

  Atom        21          22          23          24          25          26          27          28          29          30
 IAtWgt=          16          16          56          16          12           1          12           1          14          14
 AtmWgt=  15.9949146  15.9949146  55.9349393  15.9949146  12.0000000   1.0078250  12.0000000   1.0078250  14.0030740  14.0030740
 NucSpn=           0           0           0           0           0           1           0           1           2           2
 AtZEff=  -0.0000000  -0.0000000  -0.0000000  -0.0000000  -0.0000000  -0.0000000  -0.0000000  -0.0000000  -0.0000000  -0.0000000
 NQMom=    0.0000000   0.0000000   0.0000000   0.0000000   0.0000000   0.0000000   0.0000000   0.0000000   2.0440000   2.0440000
 NMagM=    0.0000000   0.0000000   0.0000000   0.0000000   0.0000000   2.7928460   0.0000000   2.7928460   0.4037610   0.4037610
 AtZNuc=   8.0000000   8.0000000  26.0000000   8.0000000   6.0000000   1.0000000   6.0000000   1.0000000   7.0000000   7.0000000

  Atom        31          32          33          34
 IAtWgt=          16          16           1           1
 AtmWgt=  15.9949146  15.9949146   1.0078250   1.0078250
 NucSpn=           0           0           1           1
 AtZEff=  -0.0000000  -0.0000000  -0.0000000  -0.0000000
 NQMom=    0.0000000   0.0000000   0.0000000   0.0000000
 NMagM=    0.0000000   0.0000000   2.7928460   2.7928460
 AtZNuc=   8.0000000   8.0000000   1.0000000   1.0000000
 Leave Link  101 at Fri Feb 24 15:56:19 2023, MaxMem= 14763950080 cpu:               0.1 elap:               0.6
 (Enter /software/commercial/gaussian/g16/AVX2/g16/l202.exe)
                          Input orientation:                          
 ---------------------------------------------------------------------
 Center     Atomic      Atomic             Coordinates (Angstroms)
 Number     Number       Type             X           Y           Z
 ---------------------------------------------------------------------
      1          8           0       -0.043318    0.011614   -0.019254
      2          8           0       -0.008489    0.020749    2.234666
      3          6           0        0.519897    0.012031    1.111677
      4          1           0        1.623463    0.006737    1.086666
      5          8           0       -4.927222   -1.618096   -0.466310
      6          8           0       -3.855542    0.218805   -1.198390
      7          6           0       -4.852826   -0.526608   -1.080156
      8          1           0       -5.777923   -0.184788   -1.578069
      9          8           0       -1.372791   -2.207352    3.459471
     10          8           0       -1.734081   -1.614913   -1.576761
     11          8           0       -2.699643   -3.349878   -0.510803
     12          6           0       -2.015888   -2.826554   -1.419924
     13          1           0       -1.611174   -3.519866   -2.177345
     14          8           0       -2.486865    1.652600    2.452551
     15          8           0       -2.201650    1.878095    0.229013
     16          6           0       -2.475465    2.294223    1.390246
     17          1           0       -2.738930    3.364299    1.456644
     18         26           0       -1.865682   -0.206648    3.111964
     19          8           0       -3.817647   -0.611793    3.744034
     20         26           0       -3.681151   -2.432221    1.024923
     21          8           0       -5.105879   -1.846268    2.370244
     22          8           0       -2.805448   -3.569191    2.377797
     23         26           0       -2.014699   -0.033980   -0.316950
     24          8           0       -2.556404   -0.928577    1.198249
     25          6           0       -4.883272   -1.138085    3.394519
     26          1           0       -5.758331   -0.981580    4.050309
     27          6           0       -1.855974   -3.311231    3.173134
     28          1           0       -1.417376   -4.195549    3.667327
     29          7           0       -2.030201   -0.128128    6.007863
     30          7           0       -1.850009    0.054475    7.118625
     31          8           0       -1.324483    0.393364    4.757232
     32          8           0       -5.218985   -3.991238    0.779762
     33          1           0       -5.646524   -3.704147   -0.038697
     34          1           0       -5.821890   -3.700454    1.479531
 ---------------------------------------------------------------------
                    Distance matrix (angstroms):
                    1          2          3          4          5
     1  O    0.000000
     2  O    2.254208   0.000000
     3  C    1.263415   1.241117   0.000000
     4  H    2.000310   1.995336   1.103862   0.000000
     5  O    5.168010   5.845940   5.900717   6.925553   0.000000
     6  O    3.995790   5.159934   4.952134   5.940198   2.249143
     7  C    4.954449   5.895358   5.827557   6.849956   1.254467
     8  H    5.945937   6.918494   6.850986   7.868800   2.003515
     9  O    4.335070   2.885464   3.744338   4.417005   5.328504
    10  O    2.816043   4.492219   3.867178   4.582215   3.380719
    11  O    4.312460   5.112831   4.929535   5.701580   2.821907
    12  C    3.729357   5.049041   4.571299   5.249324   3.293268
    13  H    4.425707   5.879659   5.275739   5.792545   4.188143
    14  O    3.843641   2.975359   3.678319   4.633498   5.017225
    15  O    2.864225   3.504616   3.415861   4.343851   4.487267
    16  C    3.621096   3.459436   3.776002   4.703824   4.976359
    17  H    4.548087   4.386337   4.687927   5.517298   5.771537
    18  Fe   3.629487   2.066525   3.120890   4.039987   4.916224
    19  O    5.366240   4.145840   5.112020   6.086860   4.468870
    20  Fe   4.505160   4.579191   4.861142   5.838772   2.106957
    21  O    5.898385   5.430241   6.056948   7.096847   2.851319
    22  O    5.118338   4.553146   5.048379   5.836911   4.049400
    23  Fe   1.994253   3.246324   2.909857   3.899746   3.318813
    24  O    2.946502   2.909854   3.218053   4.284688   2.977746
    25  C    6.033308   5.143118   5.977321   6.998171   3.890802
    26  H    7.085842   6.112439   7.002783   8.015662   4.636350
    27  C    4.951602   3.923775   4.575854   5.241063   5.054189
    28  H    5.760133   4.670615   5.290378   5.793593   6.004102
    29  N    6.347706   4.283281   5.522253   6.130712   7.247596
    30  N    7.363103   5.219712   6.457684   6.960734   8.354518
    31  O    4.960034   2.869498   4.103319   4.723655   6.656658
    32  O    6.591569   6.735136   7.005077   7.930768   2.696224
    33  H    6.723331   7.129549   7.290959   8.239527   2.247634
    34  H    7.029772   6.943573   7.357725   8.326517   2.987130
                    6          7          8          9         10
     6  O    0.000000
     7  C    1.250678   0.000000
     8  H    2.000648   1.104791   0.000000
     9  O    5.809127   5.961859   6.990906   0.000000
    10  O    2.829538   3.340299   4.289279   5.083812   0.000000
    11  O    3.813709   3.596000   4.542319   4.339237   2.253593
    12  C    3.564774   3.667889   4.599657   4.960391   1.253829
    13  H    4.469139   4.546617   5.370631   5.792514   2.001163
    14  O    4.154325   4.777734   5.518420   4.141772   5.242011
    15  O    2.743370   3.811201   4.506746   5.273874   3.959867
    16  C    3.593468   4.439799   5.085530   5.075604   4.963278
    17  H    4.264992   5.103241   5.571443   6.076261   5.916403
    18  Fe   4.766519   5.157448   6.107579   2.089622   4.897415
    19  O    5.011874   4.934740   5.687688   2.933276   5.801582
    20  Fe   3.464314   3.071733   4.027775   3.362457   3.350796
    21  O    4.308482   3.702810   4.336051   3.905476   5.196287
    22  O    5.314200   5.040487   5.994887   2.253249   4.539335
    23  Fe   2.056584   2.979955   3.971778   4.404197   2.040887
    24  O    2.957723   3.259795   4.317331   2.854703   2.974551
    25  C    4.898183   4.516364   5.141576   3.670290   5.904100
    26  H    5.710549   5.229590   5.684532   4.591794   6.946914
    27  C    5.964030   5.901332   6.908709   1.238549   5.045181
    28  H    7.007594   6.913902   7.912948   1.999530   5.853242
    29  N    7.441929   7.639765   8.461383   3.354052   7.734645
    30  N    8.556980   8.750690   9.545588   4.328164   8.854944
    31  O    6.473497   6.882634   7.765528   2.906930   6.657358
    32  O    4.847321   3.949307   4.512299   5.015605   4.831633
    33  H    4.465653   3.436764   3.843543   5.722095   4.694438
    34  H    5.137935   4.190988   4.659480   5.093525   5.513673
                   11         12         13         14         15
    11  O    0.000000
    12  C    1.252154   0.000000
    13  H    1.997754   1.103704   0.000000
    14  O    5.818207   5.939756   6.996940   0.000000
    15  O    5.303492   4.988710   5.939462   2.253068   0.000000
    16  C    5.959876   5.859234   6.875924   1.241089   1.263566
    17  H    6.996611   6.864699   7.865713   1.996317   2.001137
    18  Fe   4.868247   5.236839   6.246517   2.068211   3.573574
    19  O    5.181764   5.900675   6.956158   2.926839   4.600691
    20  Fe   2.040565   2.984271   3.965135   4.488898   4.626145
    21  O    4.043667   4.987422   5.974484   4.371280   5.185585
    22  O    2.898845   3.949380   4.709357   5.232034   5.886830
    23  Fe   3.391446   3.002503   3.971814   3.276832   1.997262
    24  O    2.967166   3.278613   4.359229   2.870642   2.990431
    25  C    4.991173   5.852493   6.886594   3.797103   5.129217
    26  H    5.980648   6.879917   7.900980   4.493798   5.952312
    27  C    3.779506   4.621327   5.360138   5.055381   5.976324
    28  H    4.451532   5.302121   5.886790   6.067976   7.023264
    29  N    7.302111   7.902767   8.870011   4.002471   6.119594
    30  N    8.397599   9.013027   9.962330   4.973111   7.135544
    31  O    6.607202   7.000226   7.967680   2.871996   4.845474
    32  O    2.902410   4.056469   4.688600   6.489654   6.622439
    33  H    3.005411   3.982396   4.570758   6.699590   6.565078
    34  H    3.719242   4.863763   5.579918   6.381563   6.766841
                   16         17         18         19         20
    16  C    0.000000
    17  H    1.104031   0.000000
    18  Fe   3.096854   4.031663   0.000000
    19  O    3.973248   4.712228   2.091369   0.000000
    20  Fe   4.891463   5.888447   3.550330   3.275081   0.000000
    21  O    5.002313   5.795440   3.706397   2.251837   2.045258
    22  O    5.955146   6.994729   3.567752   3.411357   1.972264
    23  Fe   2.923586   3.901083   3.436491   4.480634   3.213914
    24  O    3.229528   4.304517   2.158838   2.858690   1.885747
    25  C    4.647083   5.350236   3.170688   1.238830   2.955481
    26  H    5.346403   5.893263   4.078447   1.999200   3.946137
    27  C    5.914691   6.949004   3.105201   3.385418   2.952751
    28  H    6.958577   7.986547   4.052251   4.313988   3.900808
    29  N    5.233396   5.780393   2.901631   2.924691   5.732728
    30  N    6.182394   6.618394   4.015192   3.962749   6.831540
    31  O    4.034181   4.660579   1.832981   2.872765   5.240987
    32  O    6.885246   7.791840   5.568387   4.708642   2.203536
    33  H    6.933825   7.788009   6.037709   5.216943   2.571337
    34  H    6.866053   7.708171   5.524771   4.322591   2.529397
                   21         22         23         24         25
    21  O    0.000000
    22  O    2.874109   0.000000
    23  Fe   4.478928   4.514938   0.000000
    24  O    2.952211   2.902792   1.841080   0.000000
    25  C    1.264997   3.355794   4.819000   3.206526   0.000000
    26  H    1.998999   4.267616   5.829724   4.288285   1.104664
    27  C    3.654125   1.265150   4.790225   3.172982   3.733110
    28  H    4.561425   1.995484   5.792229   4.250510   4.629789
    29  N    5.063998   5.061551   6.325533   4.904079   3.998699
    30  N    6.063055   6.043117   7.437925   6.042867   4.948924
    31  O    5.001262   4.853536   5.138710   3.991430   4.106982
    32  O    2.672699   2.925235   5.208658   4.079750   3.884603
    33  H    3.089823   3.732207   5.170851   4.333897   4.353642
    34  H    2.178083   3.150085   5.582569   4.292531   3.333754
                   26         27         28         29         30
    26  H    0.000000
    27  C    4.628726   0.000000
    28  H    5.414810   1.103908   0.000000
    29  N    4.296435   4.265933   4.732608   0.000000
    30  N    5.075722   5.186030   5.491933   1.140002   0.000000
    31  O    4.695660   4.063973   4.717483   1.527766   2.442785
    32  O    4.477210   4.183358   4.778285   7.240511   8.240084
    33  H    4.913740   4.983825   5.644624   7.901050   8.931295
    34  H    3.742354   4.329928   4.942804   6.902478   7.853325
                   31         32         33         34
    31  O    0.000000
    32  O    7.086053   0.000000
    33  H    7.646605   0.966998   0.000000
    34  H    6.908642   0.968363   1.528327   0.000000
 Symmetry turned off by external request.
 Stoichiometry    C6H8Fe3N2O15(15)
 Framework group  C1[X(C6H8Fe3N2O15)]
 Deg. of freedom    96
 Full point group                 C1      NOp   1
 Rotational constants (GHZ):           0.2331023           0.1667795           0.1328916
 Leave Link  202 at Fri Feb 24 15:56:22 2023, MaxMem= 14763950080 cpu:               0.0 elap:               2.1
 (Enter /software/commercial/gaussian/g16/AVX2/g16/l122.exe)
 Counterpoise: doing full-system calculation.
 Leave Link  122 at Fri Feb 24 15:56:26 2023, MaxMem= 14763950080 cpu:               0.0 elap:               2.6
 (Enter /software/commercial/gaussian/g16/AVX2/g16/l301.exe)
 General basis read from cards:  (5D, 7F)
 Centers:       4      8     13     17     26     28     33     34
 S 3 1.00
     Exponent=  3.4061341000D+01 Coefficients=  6.0251978000D-03
     Exponent=  5.1235746000D+00 Coefficients=  4.5021094000D-02
     Exponent=  1.1646626000D+00 Coefficients=  2.0189726000D-01
 S 1 1.00
     Exponent=  3.2723041000D-01 Coefficients=  1.0000000000D+00
 S 1 1.00
     Exponent=  1.0307241000D-01 Coefficients=  1.0000000000D+00
 P 1 1.00
     Exponent=  8.0000000000D-01 Coefficients=  1.0000000000D+00
 ****
 Centers:       1      2      5      6      9     10     11     14     15     19
 Centers:      21     22     24     31     32
 S 6 1.00
     Exponent=  2.7032382631D+04 Coefficients=  2.1726302465D-04
     Exponent=  4.0523871392D+03 Coefficients=  1.6838662199D-03
     Exponent=  9.2232722710D+02 Coefficients=  8.7395616265D-03
     Exponent=  2.6124070989D+02 Coefficients=  3.5239968808D-02
     Exponent=  8.5354641351D+01 Coefficients=  1.1153519115D-01
     Exponent=  3.1035035245D+01 Coefficients=  2.5588953961D-01
 S 2 1.00
     Exponent=  1.2260860728D+01 Coefficients=  3.9768730901D-01
     Exponent=  4.9987076005D+00 Coefficients=  2.4627849430D-01
 S 1 1.00
     Exponent=  1.1703108158D+00 Coefficients=  1.0000000000D+00
 S 1 1.00
     Exponent=  4.6474740994D-01 Coefficients=  1.0000000000D+00
 S 1 1.00
     Exponent=  1.8504536357D-01 Coefficients=  1.0000000000D+00
 P 4 1.00
     Exponent=  6.3274954801D+01 Coefficients=  6.0685103418D-03
     Exponent=  1.4627049379D+01 Coefficients=  4.1912575824D-02
     Exponent=  4.4501223456D+00 Coefficients=  1.6153841088D-01
     Exponent=  1.5275799647D+00 Coefficients=  3.5706951311D-01
 P 1 1.00
     Exponent=  5.2935117943D-01 Coefficients=  4.4794207502D-01
 P 1 1.00
     Exponent=  1.7478421270D-01 Coefficients=  2.4446069663D-01
 D 1 1.00
     Exponent=  2.3140000000D+00 Coefficients=  1.0000000000D+00
 D 1 1.00
     Exponent=  6.4500000000D-01 Coefficients=  1.0000000000D+00
 F 1 1.00
     Exponent=  1.4280000000D+00 Coefficients=  1.0000000000D+00
 ****
 Centers:       3      7     12     16     25     27
 S 6 1.00
     Exponent=  1.3575349682D+04 Coefficients=  2.2245814352D-04
     Exponent=  2.0352333680D+03 Coefficients=  1.7232738252D-03
     Exponent=  4.6322562359D+02 Coefficients=  8.9255715314D-03
     Exponent=  1.3120019598D+02 Coefficients=  3.5727984502D-02
     Exponent=  4.2853015891D+01 Coefficients=  1.1076259931D-01
     Exponent=  1.5584185766D+01 Coefficients=  2.4295627626D-01
 S 2 1.00
     Exponent=  6.2067138508D+00 Coefficients=  4.1440263448D-01
     Exponent=  2.5764896527D+00 Coefficients=  2.3744968655D-01
 S 1 1.00
     Exponent=  5.7696339419D-01 Coefficients=  1.0000000000D+00
 S 1 1.00
     Exponent=  2.2972831358D-01 Coefficients=  1.0000000000D+00
 S 1 1.00
     Exponent=  9.5164440028D-02 Coefficients=  1.0000000000D+00
 P 4 1.00
     Exponent=  3.4697232244D+01 Coefficients=  5.3333657805D-03
     Exponent=  7.9582622826D+00 Coefficients=  3.5864109092D-02
     Exponent=  2.3780826883D+00 Coefficients=  1.4215873329D-01
     Exponent=  8.1433208183D-01 Coefficients=  3.4270471845D-01
 P 1 1.00
     Exponent=  2.8887547253D-01 Coefficients=  4.6445822433D-01
 P 1 1.00
     Exponent=  1.0056823671D-01 Coefficients=  2.4955789874D-01
 D 1 1.00
     Exponent=  1.0970000000D+00 Coefficients=  1.0000000000D+00
 D 1 1.00
     Exponent=  3.1800000000D-01 Coefficients=  1.0000000000D+00
 F 1 1.00
     Exponent=  7.6100000000D-01 Coefficients=  1.0000000000D+00
 ****
 Centers:      18     20     23
 S 8 1.00
     Exponent=  3.0078484637D+05 Coefficients=  2.2806273096D-04
     Exponent=  4.5088970557D+04 Coefficients=  1.7681788761D-03
     Exponent=  1.0262516317D+04 Coefficients=  9.1927083490D-03
     Exponent=  2.9052897293D+03 Coefficients=  3.7355495807D-02
     Exponent=  9.4611487137D+02 Coefficients=  1.2151108426D-01
     Exponent=  3.3987832894D+02 Coefficients=  2.8818881468D-01
     Exponent=  1.3194425588D+02 Coefficients=  4.1126612677D-01
     Exponent=  5.2111494077D+01 Coefficients=  2.1518583573D-01
 S 4 1.00
     Exponent=  3.2948839267D+02 Coefficients= -2.4745216477D-02
     Exponent=  1.0192332739D+02 Coefficients= -1.1683089050D-01
     Exponent=  1.6240462745D+01 Coefficients=  5.5293621136D-01
     Exponent=  6.8840675801D+00 Coefficients=  5.3601640182D-01
 S 2 1.00
     Exponent=  1.0470693782D+01 Coefficients= -2.2912708577D-01
     Exponent=  1.7360039648D+00 Coefficients=  7.1159319984D-01
 S 1 1.00
     Exponent=  7.2577288979D-01 Coefficients=  1.0000000000D+00
 S 1 1.00
     Exponent=  1.1595528203D-01 Coefficients=  1.0000000000D+00
 S 1 1.00
     Exponent=  4.1968227746D-02 Coefficients=  1.0000000000D+00
 P 6 1.00
     Exponent=  1.5853959970D+03 Coefficients=  2.3793960179D-03
     Exponent=  3.7538006499D+02 Coefficients=  1.9253154755D-02
     Exponent=  1.2031816501D+02 Coefficients=  9.0021836536D-02
     Exponent=  4.4788749031D+01 Coefficients=  2.5798172356D-01
     Exponent=  1.7829278584D+01 Coefficients=  4.1492649744D-01
     Exponent=  7.2247153786D+00 Coefficients=  2.4207474784D-01
 P 3 1.00
     Exponent=  2.8143219756D+01 Coefficients= -2.9041755152D-02
     Exponent=  3.8743241412D+00 Coefficients=  5.5312260343D-01
     Exponent=  1.5410752281D+00 Coefficients=  9.6771136842D-01
 P 1 1.00
     Exponent=  5.8285615250D-01 Coefficients=  1.0000000000D+00
 P 1 1.00
     Exponent=  1.3491500000D-01 Coefficients=  1.0000000000D+00
 D 4 1.00
     Exponent=  6.1996675034D+01 Coefficients=  1.1971972255D-02
     Exponent=  1.7873732552D+01 Coefficients=  7.3210135410D-02
     Exponent=  6.2744782934D+00 Coefficients=  2.3103094314D-01
     Exponent=  2.3552337175D+00 Coefficients=  3.9910706494D-01
 D 1 1.00
     Exponent=  8.5432239901D-01 Coefficients=  4.1391589765D-01
 D 1 1.00
     Exponent=  2.7869254413D-01 Coefficients=  2.1909269782D-01
 D 1 1.00
     Exponent=  9.1000000000D-02 Coefficients=  1.0000000000D+00
 F 1 1.00
     Exponent=  1.5980000000D+00 Coefficients=  1.0000000000D+00
 ****
 Centers:      29     30
 S 6 1.00
     Exponent=  1.9730800647D+04 Coefficients=  2.1887984991D-04
     Exponent=  2.9578958745D+03 Coefficients=  1.6960708803D-03
     Exponent=  6.7322133595D+02 Coefficients=  8.7954603538D-03
     Exponent=  1.9068249494D+02 Coefficients=  3.5359382605D-02
     Exponent=  6.2295441898D+01 Coefficients=  1.1095789217D-01
     Exponent=  2.2654161182D+01 Coefficients=  2.4982972552D-01
 S 2 1.00
     Exponent=  8.9791477428D+00 Coefficients=  4.0623896148D-01
     Exponent=  3.6863002370D+00 Coefficients=  2.4338217176D-01
 S 1 1.00
     Exponent=  8.4660076805D-01 Coefficients=  1.0000000000D+00
 S 1 1.00
     Exponent=  3.3647133771D-01 Coefficients=  1.0000000000D+00
 S 1 1.00
     Exponent=  1.3647653675D-01 Coefficients=  1.0000000000D+00
 P 4 1.00
     Exponent=  4.9200380510D+01 Coefficients=  5.5552416751D-03
     Exponent=  1.1346790537D+01 Coefficients=  3.8052379723D-02
     Exponent=  3.4273972411D+00 Coefficients=  1.4953671029D-01
     Exponent=  1.1785525134D+00 Coefficients=  3.4949305230D-01
 P 1 1.00
     Exponent=  4.1642204972D-01 Coefficients=  4.5843153697D-01
 P 1 1.00
     Exponent=  1.4260826011D-01 Coefficients=  2.4428771672D-01
 D 1 1.00
     Exponent=  1.6540000000D+00 Coefficients=  1.0000000000D+00
 D 1 1.00
     Exponent=  4.6900000000D-01 Coefficients=  1.0000000000D+00
 F 1 1.00
     Exponent=  1.0930000000D+00 Coefficients=  1.0000000000D+00
 ****
 Ernie: Thresh=  0.10000D-02 Tol=  0.10000D-05 Strict=F.
   896 basis functions,  1543 primitive gaussians,  1032 cartesian basis functions
   135 alpha electrons      121 beta electrons
       nuclear repulsion energy      4729.7378894556 Hartrees.
 IExCor= 4134 DFT=T Ex+Corr=M06L ExCW=0 ScaHFX=  0.000000
 ScaDFX=  1.000000  1.000000  1.000000  1.000000 ScalE2=  1.000000  1.000000
 IRadAn=      5 IRanWt=     -1 IRanGd=            0 ICorTp=0 IEmpDi=  4
 NAtoms=   34 NActive=   34 NUniq=   34 SFac= 1.00D+00 NAtFMM=   60 NAOKFM=F Big=F
 Integral buffers will be    131072 words long.
 Raffenetti 2 integral format.
 Two-electron integral symmetry is turned off.
 Leave Link  301 at Fri Feb 24 15:56:29 2023, MaxMem= 14763950080 cpu:               0.1 elap:               0.9
 (Enter /software/commercial/gaussian/g16/AVX2/g16/l302.exe)
 NPDir=0 NMtPBC=     1 NCelOv=     1 NCel=       1 NClECP=     1 NCelD=      1
         NCelK=      1 NCelE2=     1 NClLst=     1 CellRange=     0.0.
 One-electron integrals computed using PRISM.
 NBasis=   896 RedAO= T EigKep=  2.53D-04  NBF=   896
 NBsUse=   896 1.00D-06 EigRej= -1.00D+00 NBFU=   896
 Precomputing XC quadrature grid using
 IXCGrd= 4 IRadAn=           5 IRanWt=          -1 IRanGd=           0 AccXCQ= 0.00D+00.
 Generated NRdTot=       0 NPtTot=           0 NUsed=           0 NTot=          32
 NSgBfM=  1009  1009  1009  1009  1009 MxSgAt=    34 MxSgA2=    34.
 Leave Link  302 at Fri Feb 24 15:56:38 2023, MaxMem= 14763950080 cpu:               2.7 elap:               7.0
 (Enter /software/commercial/gaussian/g16/AVX2/g16/l303.exe)
 DipDrv:  MaxL=1.
 Leave Link  303 at Fri Feb 24 15:56:42 2023, MaxMem= 14763950080 cpu:               0.2 elap:               2.9
 (Enter /software/commercial/gaussian/g16/AVX2/g16/l401.exe)
 ExpMin= 4.20D-02 ExpMax= 3.01D+05 ExpMxC= 2.91D+03 IAcc=3 IRadAn=         5 AccDes= 0.00D+00
 Harris functional with IExCor= 1009 and IRadAn=       5 diagonalized for initial guess.
 HarFok:  IExCor= 1009 AccDes= 0.00D+00 IRadAn=         5 IDoV= 1 UseB2=F ITyADJ=14
 ICtDFT=  3500011 ScaDFX=  1.000000  1.000000  1.000000  1.000000
 FoFCou: FMM=F IPFlag=           0 FMFlag=      100000 FMFlg1=           0
         NFxFlg=           0 DoJE=T BraDBF=F KetDBF=T FulRan=T
         wScrn=  0.000000 ICntrl=       500 IOpCl=  0 I1Cent=   200000004 NGrid=           0
         NMat0=    1 NMatS0=      1 NMatT0=    0 NMatD0=    1 NMtDS0=    0 NMtDT0=    0
 Symmetry not used in FoFCou.
 Harris En= -5260.91561063894    
 JPrj=0 DoOrth=F DoCkMO=F.
 Initial guess <Sx>= 0.0000 <Sy>= 0.0000 <Sz>= 7.0000 <S**2>=56.0000 S= 7.0000
 Leave Link  401 at Fri Feb 24 15:57:03 2023, MaxMem= 14763950080 cpu:              31.9 elap:              20.5
 (Enter /software/commercial/gaussian/g16/AVX2/g16/l502.exe)
 Two-electron integral symmetry not used.
 UHF open shell SCF:
 Using DIIS extrapolation, IDIIS=  1040.
 NGot= 14763950080 LenX= 14761806610 LenY= 14760740554
 Requested convergence on RMS density matrix=1.00D-08 within 150 cycles.
 Requested convergence on MAX density matrix=1.00D-06.
 Requested convergence on             energy=1.00D-06.
 No special actions if energy rises.
 Fock matrices will be formed incrementally for  20 cycles.

 Cycle   1  Pass 1  IDiag  1:
 FoFJK:  IHMeth= 1 ICntrl=     500 DoSepK=F KAlg= 0 I1Cent=           0 FoldK=F
 IRaf= 760000000 NMat=       1 IRICut=       1 DoRegI=T DoRafI=F ISym2E= 0 IDoP0=0 IntGTp=1.
 FoFCou: FMM=F IPFlag=           0 FMFlag=      100000 FMFlg1=           0
         NFxFlg=           0 DoJE=T BraDBF=F KetDBF=F FulRan=T
         wScrn=  0.000000 ICntrl=       500 IOpCl=  0 I1Cent=           0 NGrid=           0
         NMat0=    1 NMatS0=      1 NMatT0=    0 NMatD0=    1 NMtDS0=    0 NMtDT0=    0
 Symmetry not used in FoFCou.
 E= -5261.66168939425    
 DIIS: error= 4.34D-02 at cycle   1 NSaved=   1.
 NSaved= 1 IEnMin= 1 EnMin= -5261.66168939425     IErMin= 1 ErrMin= 4.34D-02
 ErrMax= 4.34D-02  0.00D+00 EMaxC= 1.00D-01 BMatC= 1.17D+01 BMatP= 1.17D+01
 IDIUse=3 WtCom= 5.66D-01 WtEn= 4.34D-01
 Coeff-Com:  0.100D+01
 Coeff-En:   0.100D+01
 Coeff:      0.100D+01
 Gap=    -0.039 Goal=   None    Shift=    0.000
 Gap=    -0.272 Goal=   None    Shift=    0.000
 GapD=   -0.272 DampG=0.250 DampE=0.250 DampFc=0.1250 IDamp=-1.
 Damping current iteration by 1.25D-01
 RMSDP=4.50D-03 MaxDP=1.73D+00              OVMax= 9.71D-01

 Cycle   2  Pass 1  IDiag  1:
 RMSU=  5.62D-04    CP:  9.97D-01
 E= -5262.11241920984     Delta-E=       -0.450729815595 Rises=F Damp=T
 DIIS: error= 1.64D-02 at cycle   2 NSaved=   2.
 NSaved= 2 IEnMin= 2 EnMin= -5262.11241920984     IErMin= 2 ErrMin= 1.64D-02
 ErrMax= 1.64D-02  0.00D+00 EMaxC= 1.00D-01 BMatC= 2.73D+00 BMatP= 1.17D+01
 IDIUse=3 WtCom= 8.36D-01 WtEn= 1.64D-01
 Coeff-Com: -0.361D+00 0.136D+01
 Coeff-En:   0.218D+00 0.782D+00
 Coeff:     -0.266D+00 0.127D+01
 Gap=    -0.446 Goal=   None    Shift=    0.000
 Gap=    -0.054 Goal=   None    Shift=    0.000
 RMSDP=2.52D-03 MaxDP=1.80D-01 DE=-4.51D-01 OVMax= 9.63D-01

 Cycle   3  Pass 1  IDiag  1:
 RMSU=  2.50D-03    CP:  9.81D-01  6.26D-01
 E= -5252.98464415028     Delta-E=        9.127775059562 Rises=F Damp=F
 DIIS: error= 5.27D-02 at cycle   3 NSaved=   3.
 NSaved= 3 IEnMin= 2 EnMin= -5262.11241920984     IErMin= 2 ErrMin= 1.64D-02
 ErrMax= 5.27D-02  0.00D+00 EMaxC= 1.00D-01 BMatC= 3.08D+01 BMatP= 2.73D+00
 IDIUse=2 WtCom= 0.00D+00 WtEn= 1.00D+00
 EnCoef did     7 forward-backward iterations
 Coeff-En:   0.138D+00 0.813D+00 0.493D-01
 Coeff:      0.138D+00 0.813D+00 0.493D-01
 Gap=     0.027 Goal=   None    Shift=    0.000
 Gap=     0.004 Goal=   None    Shift=    0.000
 RMSDP=2.84D-03 MaxDP=3.33D-01 DE= 9.13D+00 OVMax= 7.68D-01

 Cycle   4  Pass 1  IDiag  1:
 RMSU=  1.81D-03    CP:  9.80D-01  2.48D+00  2.32D-01
 E= -5251.88978712424     Delta-E=        1.094857026041 Rises=F Damp=F
 DIIS: error= 1.62D-01 at cycle   4 NSaved=   4.
 NSaved= 4 IEnMin= 2 EnMin= -5262.11241920984     IErMin= 2 ErrMin= 1.64D-02
 ErrMax= 1.62D-01  0.00D+00 EMaxC= 1.00D-01 BMatC= 7.44D+01 BMatP= 2.73D+00
 IDIUse=2 WtCom= 0.00D+00 WtEn= 1.00D+00
 EnCoef did   100 forward-backward iterations
 Coeff-En:   0.759D+00 0.211D-01 0.823D-02 0.211D+00
 Coeff:      0.759D+00 0.211D-01 0.823D-02 0.211D+00
 Gap=     0.101 Goal=   None    Shift=    0.000
 Gap=    -0.040 Goal=   None    Shift=    0.000
 RMSDP=2.06D-03 MaxDP=3.71D-01 DE= 1.09D+00 OVMax= 7.91D-01

 Cycle   5  Pass 1  IDiag  1:
 RMSU=  1.60D-03    CP:  9.87D-01  1.75D+00  1.35D-01  3.31D-01
 E= -5256.18558270496     Delta-E=       -4.295795580718 Rises=F Damp=F
 DIIS: error= 1.84D-01 at cycle   5 NSaved=   5.
 NSaved= 5 IEnMin= 2 EnMin= -5262.11241920984     IErMin= 2 ErrMin= 1.64D-02
 ErrMax= 1.84D-01  0.00D+00 EMaxC= 1.00D-01 BMatC= 4.74D+01 BMatP= 2.73D+00
 IDIUse=2 WtCom= 0.00D+00 WtEn= 1.00D+00
 EnCoef did   100 forward-backward iterations
 Coeff-En:   0.702D+00 0.928D-02 0.362D-02 0.177D+00 0.108D+00
 Coeff:      0.702D+00 0.928D-02 0.362D-02 0.177D+00 0.108D+00
 Gap=     0.025 Goal=   None    Shift=    0.000
 Gap=     0.010 Goal=   None    Shift=    0.000
 RMSDP=1.70D-03 MaxDP=3.96D-01 DE=-4.30D+00 OVMax= 9.95D-01

 Cycle   6  Pass 1  IDiag  1:
 RMSU=  1.11D-03    CP:  9.91D-01  1.12D+00  1.72D-01  3.62D-01  2.25D-01
 E= -5261.79068272156     Delta-E=       -5.605100016603 Rises=F Damp=F
 DIIS: error= 4.24D-02 at cycle   6 NSaved=   6.
 NSaved= 6 IEnMin= 2 EnMin= -5262.11241920984     IErMin= 2 ErrMin= 1.64D-02
 ErrMax= 4.24D-02  0.00D+00 EMaxC= 1.00D-01 BMatC= 7.61D+00 BMatP= 2.73D+00
 IDIUse=2 WtCom= 0.00D+00 WtEn= 1.00D+00
 EnCoef did   100 forward-backward iterations
 Coeff-En:   0.393D+00 0.851D-02 0.478D-03 0.317D-04 0.148D+00 0.450D+00
 Coeff:      0.393D+00 0.851D-02 0.478D-03 0.317D-04 0.148D+00 0.450D+00
 Gap=     0.022 Goal=   None    Shift=    0.000
 Gap=     0.002 Goal=   None    Shift=    0.000
 RMSDP=1.99D-03 MaxDP=3.01D-01 DE=-5.61D+00 OVMax= 9.48D-01

 Cycle   7  Pass 1  IDiag  1:
 RMSU=  1.50D-03    CP:  9.87D-01  1.32D+00  1.73D-01  4.94D-01  2.16D-01
                    CP: -1.53D-01
 E= -5253.35323918614     Delta-E=        8.437443535417 Rises=F Damp=F
 DIIS: error= 1.36D-01 at cycle   7 NSaved=   7.
 NSaved= 7 IEnMin= 2 EnMin= -5262.11241920984     IErMin= 2 ErrMin= 1.64D-02
 ErrMax= 1.36D-01  0.00D+00 EMaxC= 1.00D-01 BMatC= 5.11D+01 BMatP= 2.73D+00
 IDIUse=2 WtCom= 0.00D+00 WtEn= 1.00D+00
 EnCoef did   100 forward-backward iterations
 Coeff-En:   0.371D+00 0.363D-02 0.204D-03 0.135D-04 0.116D+00 0.451D+00
 Coeff-En:   0.582D-01
 Coeff:      0.371D+00 0.363D-02 0.204D-03 0.135D-04 0.116D+00 0.451D+00
 Coeff:      0.582D-01
 Gap=     0.008 Goal=   None    Shift=    0.000
 Gap=     0.005 Goal=   None    Shift=    0.000
 RMSDP=1.62D-03 MaxDP=3.19D-01 DE= 8.44D+00 OVMax= 9.21D-01

 Cycle   8  Pass 1  IDiag  1:
 RMSU=  8.22D-04    CP:  9.93D-01  9.91D-01  1.22D-01  3.33D-01  4.56D-01
                    CP:  7.34D-03  1.52D-01
 E= -5262.18840229535     Delta-E=       -8.835163109208 Rises=F Damp=F
 DIIS: error= 6.86D-02 at cycle   8 NSaved=   8.
 NSaved= 8 IEnMin= 8 EnMin= -5262.18840229535     IErMin= 2 ErrMin= 1.64D-02
 ErrMax= 6.86D-02  0.00D+00 EMaxC= 1.00D-01 BMatC= 5.80D+00 BMatP= 2.73D+00
 IDIUse=2 WtCom= 0.00D+00 WtEn= 1.00D+00
 EnCoef did   100 forward-backward iterations
 Coeff-En:   0.127D+00 0.000D+00 0.847D-03 0.000D+00 0.000D+00 0.405D+00
 Coeff-En:   0.000D+00 0.467D+00
 Coeff:      0.127D+00 0.000D+00 0.847D-03 0.000D+00 0.000D+00 0.405D+00
 Coeff:      0.000D+00 0.467D+00
 Gap=    -0.102 Goal=   None    Shift=    0.000
 Gap=     0.117 Goal=   None    Shift=    0.000
 RMSDP=1.59D-03 MaxDP=1.99D-01 DE=-8.84D+00 OVMax= 9.98D-01

 Cycle   9  Pass 1  IDiag  1:
 RMSU=  1.20D-03    CP:  9.91D-01  5.88D-01  2.79D-01  1.75D-01  9.87D-02
                    CP:  2.45D-01  2.10D-01  2.23D-01
 E= -5260.05885185345     Delta-E=        2.129550441901 Rises=F Damp=F
 DIIS: error= 7.88D-02 at cycle   9 NSaved=   9.
 NSaved= 9 IEnMin= 8 EnMin= -5262.18840229535     IErMin= 2 ErrMin= 1.64D-02
 ErrMax= 7.88D-02  0.00D+00 EMaxC= 1.00D-01 BMatC= 1.10D+01 BMatP= 2.73D+00
 IDIUse=2 WtCom= 0.00D+00 WtEn= 1.00D+00
 EnCoef did     3 forward-backward iterations
 Coeff-En:   0.000D+00 0.000D+00 0.000D+00 0.000D+00 0.000D+00 0.388D+00
 Coeff-En:   0.000D+00 0.483D+00 0.129D+00
 Coeff:      0.000D+00 0.000D+00 0.000D+00 0.000D+00 0.000D+00 0.388D+00
 Coeff:      0.000D+00 0.483D+00 0.129D+00
 Gap=    -0.158 Goal=   None    Shift=    0.000
 Gap=     0.145 Goal=   None    Shift=    0.000
 RMSDP=1.26D-03 MaxDP=1.96D-01 DE= 2.13D+00 OVMax= 7.22D-01

 Cycle  10  Pass 1  IDiag  1:
 RMSU=  7.06D-04    CP:  9.97D-01  5.68D-01  1.74D-01  1.59D-01  1.30D-01
                    CP:  5.22D-01  1.08D-01  3.39D-01  2.13D-01
 E= -5262.25633111785     Delta-E=       -2.197479264405 Rises=F Damp=F
 DIIS: error= 6.04D-02 at cycle  10 NSaved=  10.
 NSaved=10 IEnMin=10 EnMin= -5262.25633111785     IErMin= 2 ErrMin= 1.64D-02
 ErrMax= 6.04D-02  0.00D+00 EMaxC= 1.00D-01 BMatC= 4.66D+00 BMatP= 2.73D+00
 IDIUse=2 WtCom= 0.00D+00 WtEn= 1.00D+00
 EnCoef did   100 forward-backward iterations
 Coeff-En:   0.000D+00 0.000D+00 0.000D+00 0.000D+00 0.224D-02 0.218D+00
 Coeff-En:   0.409D-03 0.459D+00 0.000D+00 0.320D+00
 Coeff:      0.000D+00 0.000D+00 0.000D+00 0.000D+00 0.224D-02 0.218D+00
 Coeff:      0.409D-03 0.459D+00 0.000D+00 0.320D+00
 Gap=     0.033 Goal=   None    Shift=    0.000
 Gap=     0.054 Goal=   None    Shift=    0.000
 RMSDP=1.27D-03 MaxDP=2.85D-01 DE=-2.20D+00 OVMax= 9.50D-01

 Cycle  11  Pass 1  IDiag  1:
 RMSU=  8.40D-04    CP:  9.94D-01  1.12D+00  1.44D-01  3.62D-01  1.08D-01
                    CP:  4.34D-01  2.10D-01  1.20D-01  2.71D-01 -8.62D-02
 E= -5260.90968295465     Delta-E=        1.346648163206 Rises=F Damp=F
 DIIS: error= 8.07D-02 at cycle  11 NSaved=  11.
 NSaved=11 IEnMin=10 EnMin= -5262.25633111785     IErMin= 2 ErrMin= 1.64D-02
 ErrMax= 8.07D-02  0.00D+00 EMaxC= 1.00D-01 BMatC= 1.55D+01 BMatP= 2.73D+00
 IDIUse=2 WtCom= 0.00D+00 WtEn= 1.00D+00
 EnCoef did   100 forward-backward iterations
 Coeff-En:   0.000D+00 0.000D+00 0.000D+00 0.000D+00 0.137D-02 0.180D+00
 Coeff-En:   0.250D-03 0.441D+00 0.000D+00 0.314D+00 0.629D-01
 Coeff:      0.000D+00 0.000D+00 0.000D+00 0.000D+00 0.137D-02 0.180D+00
 Coeff:      0.250D-03 0.441D+00 0.000D+00 0.314D+00 0.629D-01
 Gap=    -0.013 Goal=   None    Shift=    0.000
 Gap=    -0.012 Goal=   None    Shift=    0.000
 RMSDP=1.21D-03 MaxDP=2.67D-01 DE= 1.35D+00 OVMax= 9.93D-01

 Cycle  12  Pass 1  IDiag  1:
 RMSU=  5.09D-04    CP:  9.96D-01  1.05D+00  1.52D-01  3.29D-01  3.21D-01
                    CP:  2.12D-01  1.71D-02  6.58D-01  1.76D-01  3.50D-01
                    CP:  4.89D-02
 E= -5263.17174189746     Delta-E=       -2.262058942810 Rises=F Damp=F
 DIIS: error= 1.02D-02 at cycle  12 NSaved=  12.
 NSaved=12 IEnMin=12 EnMin= -5263.17174189746     IErMin=12 ErrMin= 1.02D-02
 ErrMax= 1.02D-02  0.00D+00 EMaxC= 1.00D-01 BMatC= 2.66D-01 BMatP= 2.73D+00
 IDIUse=3 WtCom= 8.98D-01 WtEn= 1.02D-01
 Coeff-Com:  0.314D-01-0.153D-01-0.988D-02 0.158D-03-0.238D-01-0.119D-01
 Coeff-Com:  0.649D-02 0.566D-01-0.585D-02 0.133D+00-0.148D-01 0.853D+00
 Coeff-En:   0.000D+00 0.000D+00 0.000D+00 0.000D+00 0.000D+00 0.000D+00
 Coeff-En:   0.000D+00 0.000D+00 0.000D+00 0.924D-01 0.000D+00 0.908D+00
 Coeff:      0.282D-01-0.137D-01-0.887D-02 0.142D-03-0.214D-01-0.106D-01
 Coeff:      0.583D-02 0.509D-01-0.525D-02 0.129D+00-0.133D-01 0.859D+00
 Gap=     0.055 Goal=   None    Shift=    0.000
 Gap=     0.009 Goal=   None    Shift=    0.000
 RMSDP=3.70D-04 MaxDP=3.36D-02 DE=-2.26D+00 OVMax= 2.62D-01

 Cycle  13  Pass 1  IDiag  1:
 RMSU=  3.18D-04    CP:  9.95D-01  9.77D-01  1.42D-01  3.24D-01  3.16D-01
                    CP:  1.57D-01  2.22D-02  7.46D-01  1.94D-01  3.85D-01
                    CP: -3.03D-02  7.34D-01
 E= -5263.18274229967     Delta-E=       -0.011000402212 Rises=F Damp=F
 DIIS: error= 6.09D-03 at cycle  13 NSaved=  13.
 NSaved=13 IEnMin=13 EnMin= -5263.18274229967     IErMin=13 ErrMin= 6.09D-03
 ErrMax= 6.09D-03  0.00D+00 EMaxC= 1.00D-01 BMatC= 2.14D-01 BMatP= 2.66D-01
 IDIUse=3 WtCom= 9.39D-01 WtEn= 6.09D-02
 EnCoef did     4 forward-backward iterations
 Coeff-Com:  0.232D-01-0.211D-01-0.348D-02 0.293D-02-0.697D-02-0.319D-01
 Coeff-Com:  0.113D-02-0.203D-01-0.777D-02 0.882D-01-0.199D-02 0.625D+00
 Coeff-Com:  0.353D+00
 Coeff-En:   0.000D+00 0.000D+00 0.000D+00 0.000D+00 0.000D+00 0.000D+00
 Coeff-En:   0.000D+00 0.000D+00 0.000D+00 0.217D-01 0.000D+00 0.455D+00
 Coeff-En:   0.524D+00
 Coeff:      0.217D-01-0.198D-01-0.327D-02 0.275D-02-0.654D-02-0.299D-01
 Coeff:      0.107D-02-0.191D-01-0.730D-02 0.842D-01-0.187D-02 0.615D+00
 Coeff:      0.363D+00
 Gap=     0.062 Goal=   None    Shift=    0.000
 Gap=     0.017 Goal=   None    Shift=    0.000
 RMSDP=2.03D-04 MaxDP=2.07D-02 DE=-1.10D-02 OVMax= 1.29D-01

 Cycle  14  Pass 1  IDiag  1:
 RMSU=  1.55D-04    CP:  9.95D-01  9.85D-01  1.55D-01  3.29D-01  3.03D-01
                    CP:  1.69D-01  4.07D-03  7.17D-01  2.36D-01  4.53D-01
                    CP:  7.25D-04  7.88D-01  7.17D-01
 E= -5263.22080024352     Delta-E=       -0.038057943855 Rises=F Damp=F
 DIIS: error= 2.47D-03 at cycle  14 NSaved=  14.
 NSaved=14 IEnMin=14 EnMin= -5263.22080024352     IErMin=14 ErrMin= 2.47D-03
 ErrMax= 2.47D-03  0.00D+00 EMaxC= 1.00D-01 BMatC= 3.10D-02 BMatP= 2.14D-01
 IDIUse=3 WtCom= 9.75D-01 WtEn= 2.47D-02
 Coeff-Com:  0.476D-02-0.294D-02-0.428D-03 0.158D-03 0.155D-02-0.135D-01
 Coeff-Com: -0.598D-03-0.203D-01-0.730D-03 0.262D-01 0.238D-02 0.273D+00
 Coeff-Com:  0.261D+00 0.470D+00
 Coeff-En:   0.000D+00 0.000D+00 0.000D+00 0.000D+00 0.000D+00 0.000D+00
 Coeff-En:   0.000D+00 0.000D+00 0.000D+00 0.000D+00 0.000D+00 0.000D+00
 Coeff-En:   0.114D+00 0.886D+00
 Coeff:      0.465D-02-0.286D-02-0.417D-03 0.154D-03 0.151D-02-0.132D-01
 Coeff:     -0.583D-03-0.198D-01-0.712D-03 0.256D-01 0.232D-02 0.266D+00
 Coeff:      0.257D+00 0.480D+00
 Gap=     0.061 Goal=   None    Shift=    0.000
 Gap=     0.026 Goal=   None    Shift=    0.000
 RMSDP=1.09D-04 MaxDP=1.42D-02 DE=-3.81D-02 OVMax= 9.47D-02

 Cycle  15  Pass 1  IDiag  1:
 RMSU=  9.30D-05    CP:  9.95D-01  9.92D-01  1.59D-01  3.32D-01  3.06D-01
                    CP:  1.71D-01  1.79D-04  7.08D-01  2.56D-01  4.87D-01
                    CP:  4.94D-03  7.44D-01  8.20D-01  9.41D-01
 E= -5263.22345087652     Delta-E=       -0.002650632998 Rises=F Damp=F
 DIIS: error= 2.27D-03 at cycle  15 NSaved=  15.
 NSaved=15 IEnMin=15 EnMin= -5263.22345087652     IErMin=15 ErrMin= 2.27D-03
 ErrMax= 2.27D-03  0.00D+00 EMaxC= 1.00D-01 BMatC= 1.99D-02 BMatP= 3.10D-02
 IDIUse=3 WtCom= 9.77D-01 WtEn= 2.27D-02
 Coeff-Com: -0.339D-03 0.120D-02-0.364D-03-0.108D-02 0.183D-02-0.394D-02
 Coeff-Com:  0.685D-03-0.246D-02 0.890D-03 0.107D-02 0.129D-02 0.120D+00
 Coeff-Com:  0.133D+00 0.381D+00 0.367D+00
 Coeff-En:   0.000D+00 0.000D+00 0.000D+00 0.000D+00 0.000D+00 0.000D+00
 Coeff-En:   0.000D+00 0.000D+00 0.000D+00 0.000D+00 0.000D+00 0.000D+00
 Coeff-En:   0.000D+00 0.367D+00 0.633D+00
 Coeff:     -0.331D-03 0.117D-02-0.356D-03-0.106D-02 0.178D-02-0.385D-02
 Coeff:      0.669D-03-0.241D-02 0.869D-03 0.105D-02 0.126D-02 0.118D+00
 Coeff:      0.130D+00 0.381D+00 0.373D+00
 Gap=     0.070 Goal=   None    Shift=    0.000
 Gap=     0.027 Goal=   None    Shift=    0.000
 RMSDP=4.87D-05 MaxDP=7.26D-03 DE=-2.65D-03 OVMax= 2.04D-02

 Cycle  16  Pass 1  IDiag  1:
 RMSU=  3.94D-05    CP:  9.95D-01  9.95D-01  1.59D-01  3.31D-01  3.09D-01
                    CP:  1.69D-01  3.54D-03  7.12D-01  2.55D-01  4.88D-01
                    CP:  5.33D-03  7.35D-01  8.08D-01  1.04D+00  7.63D-01
 E= -5263.22636285888     Delta-E=       -0.002911982356 Rises=F Damp=F
 DIIS: error= 1.69D-03 at cycle  16 NSaved=  16.
 NSaved=16 IEnMin=16 EnMin= -5263.22636285888     IErMin=16 ErrMin= 1.69D-03
 ErrMax= 1.69D-03  0.00D+00 EMaxC= 1.00D-01 BMatC= 7.65D-03 BMatP= 1.99D-02
 IDIUse=3 WtCom= 9.83D-01 WtEn= 1.69D-02
 Coeff-Com:  0.108D-02 0.932D-03-0.111D-02-0.617D-03-0.359D-03-0.206D-03
 Coeff-Com:  0.408D-03 0.138D-01-0.160D-02-0.996D-02 0.152D-02 0.504D-01
 Coeff-Com:  0.279D-01 0.135D+00 0.263D+00 0.519D+00
 Coeff-En:   0.000D+00 0.000D+00 0.000D+00 0.000D+00 0.000D+00 0.000D+00
 Coeff-En:   0.000D+00 0.000D+00 0.000D+00 0.000D+00 0.000D+00 0.000D+00
 Coeff-En:   0.000D+00 0.000D+00 0.416D-01 0.958D+00
 Coeff:      0.106D-02 0.916D-03-0.109D-02-0.606D-03-0.352D-03-0.202D-03
 Coeff:      0.401D-03 0.135D-01-0.157D-02-0.979D-02 0.149D-02 0.496D-01
 Coeff:      0.274D-01 0.133D+00 0.260D+00 0.527D+00
 Gap=     0.075 Goal=   None    Shift=    0.000
 Gap=     0.026 Goal=   None    Shift=    0.000
 RMSDP=2.82D-05 MaxDP=3.11D-03 DE=-2.91D-03 OVMax= 1.28D-02

 Cycle  17  Pass 1  IDiag  1:
 RMSU=  2.19D-05    CP:  9.95D-01  9.96D-01  1.59D-01  3.32D-01  3.09D-01
                    CP:  1.67D-01  3.48D-03  7.12D-01  2.57D-01  4.89D-01
                    CP:  9.12D-03  7.25D-01  8.28D-01  1.09D+00  8.72D-01
                    CP:  7.93D-01
 E= -5263.22702137853     Delta-E=       -0.000658519653 Rises=F Damp=F
 DIIS: error= 1.06D-03 at cycle  17 NSaved=  17.
 NSaved=17 IEnMin=17 EnMin= -5263.22702137853     IErMin=17 ErrMin= 1.06D-03
 ErrMax= 1.06D-03  0.00D+00 EMaxC= 1.00D-01 BMatC= 4.09D-03 BMatP= 7.65D-03
 IDIUse=3 WtCom= 9.89D-01 WtEn= 1.06D-02
 Coeff-Com:  0.606D-04 0.386D-02-0.841D-03 0.178D-03-0.108D-02-0.428D-03
 Coeff-Com: -0.391D-03 0.147D-01-0.420D-02-0.691D-02 0.778D-03 0.299D-01
 Coeff-Com: -0.574D-02-0.576D-01-0.853D-01 0.351D+00 0.762D+00
 Coeff-En:   0.000D+00 0.000D+00 0.000D+00 0.000D+00 0.000D+00 0.000D+00
 Coeff-En:   0.000D+00 0.000D+00 0.000D+00 0.000D+00 0.000D+00 0.000D+00
 Coeff-En:   0.000D+00 0.000D+00 0.000D+00 0.893D-01 0.911D+00
 Coeff:      0.600D-04 0.382D-02-0.832D-03 0.176D-03-0.107D-02-0.424D-03
 Coeff:     -0.387D-03 0.146D-01-0.416D-02-0.684D-02 0.770D-03 0.296D-01
 Coeff:     -0.568D-02-0.570D-01-0.844D-01 0.348D+00 0.764D+00
 Gap=     0.081 Goal=   None    Shift=    0.000
 Gap=     0.026 Goal=   None    Shift=    0.000
 RMSDP=2.40D-05 MaxDP=3.30D-03 DE=-6.59D-04 OVMax= 1.17D-02

 Cycle  18  Pass 1  IDiag  1:
 RMSU=  1.91D-05    CP:  9.95D-01  9.97D-01  1.59D-01  3.32D-01  3.11D-01
                    CP:  1.62D-01  5.18D-03  7.16D-01  2.53D-01  4.84D-01
                    CP:  9.49D-03  7.19D-01  8.29D-01  1.09D+00  8.64D-01
                    CP:  1.05D+00  1.00D+00
 E= -5263.22765936019     Delta-E=       -0.000637981662 Rises=F Damp=F
 DIIS: error= 4.47D-04 at cycle  18 NSaved=  18.
 NSaved=18 IEnMin=18 EnMin= -5263.22765936019     IErMin=18 ErrMin= 4.47D-04
 ErrMax= 4.47D-04  0.00D+00 EMaxC= 1.00D-01 BMatC= 1.12D-03 BMatP= 4.09D-03
 IDIUse=3 WtCom= 9.96D-01 WtEn= 4.47D-03
 Coeff-Com: -0.339D-02 0.566D-02-0.680D-03 0.429D-03-0.149D-03 0.492D-03
 Coeff-Com: -0.281D-03 0.203D-02-0.151D-02 0.146D-03-0.201D-02 0.209D-01
 Coeff-Com:  0.128D-01-0.503D-01-0.214D+00-0.609D-01 0.592D+00 0.699D+00
 Coeff-En:   0.000D+00 0.000D+00 0.000D+00 0.000D+00 0.000D+00 0.000D+00
 Coeff-En:   0.000D+00 0.000D+00 0.000D+00 0.000D+00 0.000D+00 0.000D+00
 Coeff-En:   0.000D+00 0.000D+00 0.000D+00 0.000D+00 0.000D+00 0.100D+01
 Coeff:     -0.338D-02 0.563D-02-0.677D-03 0.427D-03-0.148D-03 0.489D-03
 Coeff:     -0.280D-03 0.202D-02-0.151D-02 0.146D-03-0.200D-02 0.208D-01
 Coeff:      0.127D-01-0.501D-01-0.213D+00-0.606D-01 0.590D+00 0.700D+00
 Gap=     0.084 Goal=   None    Shift=    0.000
 Gap=     0.025 Goal=   None    Shift=    0.000
 RMSDP=1.63D-05 MaxDP=1.59D-03 DE=-6.38D-04 OVMax= 8.20D-03

 Cycle  19  Pass 1  IDiag  1:
 RMSU=  1.03D-05    CP:  9.95D-01  1.00D+00  1.58D-01  3.31D-01  3.13D-01
                    CP:  1.60D-01  6.36D-03  7.17D-01  2.50D-01  4.81D-01
                    CP:  8.99D-03  7.17D-01  8.32D-01  1.09D+00  8.29D-01
                    CP:  1.17D+00  1.41D+00  8.63D-01
 E= -5263.22782377952     Delta-E=       -0.000164419325 Rises=F Damp=F
 DIIS: error= 2.77D-04 at cycle  19 NSaved=  19.
 NSaved=19 IEnMin=19 EnMin= -5263.22782377952     IErMin=19 ErrMin= 2.77D-04
 ErrMax= 2.77D-04  0.00D+00 EMaxC= 1.00D-01 BMatC= 3.58D-04 BMatP= 1.12D-03
 IDIUse=3 WtCom= 9.97D-01 WtEn= 2.77D-03
 Coeff-Com: -0.321D-02 0.448D-02-0.127D-03 0.320D-03 0.834D-04 0.144D-02
 Coeff-Com: -0.253D-03-0.569D-03-0.685D-03-0.110D-03-0.655D-03 0.508D-02
 Coeff-Com:  0.980D-02-0.150D-01-0.113D+00-0.757D-01 0.277D+00 0.466D+00
 Coeff-Com:  0.445D+00
 Coeff-En:   0.000D+00 0.000D+00 0.000D+00 0.000D+00 0.000D+00 0.000D+00
 Coeff-En:   0.000D+00 0.000D+00 0.000D+00 0.000D+00 0.000D+00 0.000D+00
 Coeff-En:   0.000D+00 0.000D+00 0.000D+00 0.000D+00 0.000D+00 0.197D+00
 Coeff-En:   0.803D+00
 Coeff:     -0.320D-02 0.447D-02-0.127D-03 0.319D-03 0.832D-04 0.144D-02
 Coeff:     -0.253D-03-0.567D-03-0.683D-03-0.110D-03-0.653D-03 0.507D-02
 Coeff:      0.978D-02-0.150D-01-0.112D+00-0.754D-01 0.276D+00 0.466D+00
 Coeff:      0.446D+00
 Gap=     0.084 Goal=   None    Shift=    0.000
 Gap=     0.024 Goal=   None    Shift=    0.000
 RMSDP=6.40D-06 MaxDP=5.71D-04 DE=-1.64D-04 OVMax= 2.43D-03

 Cycle  20  Pass 1  IDiag  1:
 RMSU=  4.39D-06    CP:  9.95D-01  1.00D+00  1.58D-01  3.32D-01  3.13D-01
                    CP:  1.60D-01  5.69D-03  7.16D-01  2.50D-01  4.81D-01
                    CP:  9.07D-03  7.19D-01  8.34D-01  1.10D+00  8.24D-01
                    CP:  1.18D+00  1.41D+00  9.57D-01  6.44D-01
 E= -5263.22788122301     Delta-E=       -0.000057443494 Rises=F Damp=F
 DIIS: error= 8.91D-05 at cycle  20 NSaved=  20.
 NSaved=20 IEnMin=20 EnMin= -5263.22788122301     IErMin=20 ErrMin= 8.91D-05
 ErrMax= 8.91D-05  0.00D+00 EMaxC= 1.00D-01 BMatC= 6.03D-05 BMatP= 3.58D-04
 IDIUse=1 WtCom= 1.00D+00 WtEn= 0.00D+00
 Coeff-Com: -0.151D-02 0.200D-02-0.770D-04 0.132D-03-0.263D-05 0.144D-02
 Coeff-Com: -0.820D-04-0.732D-03-0.191D-03-0.794D-03 0.110D-03-0.284D-02
 Coeff-Com:  0.176D-02-0.182D-02-0.159D-01-0.229D-01 0.587D-01 0.130D+00
 Coeff-Com:  0.254D+00 0.598D+00
 Coeff:     -0.151D-02 0.200D-02-0.770D-04 0.132D-03-0.263D-05 0.144D-02
 Coeff:     -0.820D-04-0.732D-03-0.191D-03-0.794D-03 0.110D-03-0.284D-02
 Coeff:      0.176D-02-0.182D-02-0.159D-01-0.229D-01 0.587D-01 0.130D+00
 Coeff:      0.254D+00 0.598D+00
 Gap=     0.084 Goal=   None    Shift=    0.000
 Gap=     0.024 Goal=   None    Shift=    0.000
 RMSDP=3.49D-06 MaxDP=2.97D-04 DE=-5.74D-05 OVMax= 2.13D-03

 Cycle  21  Pass 1  IDiag  1:
 Restarting incremental Fock formation.
 E= -5263.22789068782     Delta-E=       -0.000009464811 Rises=F Damp=F
 DIIS: error= 8.79D-05 at cycle  21 NSaved=  20.
 NSaved=20 IEnMin=20 EnMin= -5263.22789068782     IErMin=20 ErrMin= 8.79D-05
 ErrMax= 8.79D-05  0.00D+00 EMaxC= 1.00D-01 BMatC= 1.60D-05 BMatP= 6.03D-05
 IDIUse=1 WtCom= 1.00D+00 WtEn= 0.00D+00
 Coeff-Com: -0.656D-03 0.708D-03-0.713D-04 0.204D-04 0.643D-03 0.118D-04
 Coeff-Com: -0.491D-03 0.874D-05-0.294D-03 0.223D-03-0.407D-02-0.178D-02
 Coeff-Com:  0.222D-02 0.237D-01 0.269D-03-0.372D-01-0.420D-01 0.562D-01
 Coeff-Com:  0.443D+00 0.560D+00
 Coeff:     -0.656D-03 0.708D-03-0.713D-04 0.204D-04 0.643D-03 0.118D-04
 Coeff:     -0.491D-03 0.874D-05-0.294D-03 0.223D-03-0.407D-02-0.178D-02
 Coeff:      0.222D-02 0.237D-01 0.269D-03-0.372D-01-0.420D-01 0.562D-01
 Coeff:      0.443D+00 0.560D+00
 Gap=     0.084 Goal=   None    Shift=    0.000
 Gap=     0.024 Goal=   None    Shift=    0.000
 RMSDP=1.99D-06 MaxDP=1.57D-04 DE=-9.46D-06 OVMax= 1.08D-03

 Cycle  22  Pass 1  IDiag  1:
 RMSU=  1.99D-06    CP:  1.00D+00
 E= -5263.22789330765     Delta-E=       -0.000002619823 Rises=F Damp=F
 DIIS: error= 2.17D-05 at cycle  22 NSaved=  20.
 NSaved=20 IEnMin=20 EnMin= -5263.22789330765     IErMin=20 ErrMin= 2.17D-05
 ErrMax= 2.17D-05  0.00D+00 EMaxC= 1.00D-01 BMatC= 3.56D-06 BMatP= 1.60D-05
 IDIUse=1 WtCom= 1.00D+00 WtEn= 0.00D+00
 Coeff-Com: -0.149D-03 0.212D-03 0.614D-05 0.407D-05-0.125D-04-0.482D-04
 Coeff-Com:  0.239D-04 0.133D-04 0.871D-04-0.163D-02-0.122D-02 0.120D-02
 Coeff-Com:  0.177D-01 0.337D-02-0.326D-01-0.567D-01-0.298D-01 0.106D+00
 Coeff-Com:  0.394D+00 0.600D+00
 Coeff:     -0.149D-03 0.212D-03 0.614D-05 0.407D-05-0.125D-04-0.482D-04
 Coeff:      0.239D-04 0.133D-04 0.871D-04-0.163D-02-0.122D-02 0.120D-02
 Coeff:      0.177D-01 0.337D-02-0.326D-01-0.567D-01-0.298D-01 0.106D+00
 Coeff:      0.394D+00 0.600D+00
 Gap=     0.084 Goal=   None    Shift=    0.000
 Gap=     0.024 Goal=   None    Shift=    0.000
 RMSDP=8.36D-07 MaxDP=8.09D-05 DE=-2.62D-06 OVMax= 1.98D-04

 Cycle  23  Pass 1  IDiag  1:
 RMSU=  7.97D-07    CP:  1.00D+00  8.74D-01
 E= -5263.22789398603     Delta-E=       -0.000000678385 Rises=F Damp=F
 DIIS: error= 6.51D-06 at cycle  23 NSaved=  20.
 NSaved=20 IEnMin=20 EnMin= -5263.22789398603     IErMin=20 ErrMin= 6.51D-06
 ErrMax= 6.51D-06  0.00D+00 EMaxC= 1.00D-01 BMatC= 3.61D-07 BMatP= 3.56D-06
 IDIUse=1 WtCom= 1.00D+00 WtEn= 0.00D+00
 Coeff-Com: -0.430D-04 0.571D-04 0.169D-05-0.258D-04 0.118D-05 0.126D-04
 Coeff-Com:  0.277D-04-0.362D-06-0.571D-03-0.542D-03 0.647D-03 0.899D-02
 Coeff-Com:  0.198D-02-0.168D-01-0.303D-01-0.218D-01 0.334D-01 0.195D+00
 Coeff-Com:  0.351D+00 0.479D+00
 Coeff:     -0.430D-04 0.571D-04 0.169D-05-0.258D-04 0.118D-05 0.126D-04
 Coeff:      0.277D-04-0.362D-06-0.571D-03-0.542D-03 0.647D-03 0.899D-02
 Coeff:      0.198D-02-0.168D-01-0.303D-01-0.218D-01 0.334D-01 0.195D+00
 Coeff:      0.351D+00 0.479D+00
 Gap=     0.084 Goal=   None    Shift=    0.000
 Gap=     0.024 Goal=   None    Shift=    0.000
 RMSDP=2.65D-07 MaxDP=2.24D-05 DE=-6.78D-07 OVMax= 7.48D-05

 Cycle  24  Pass 1  IDiag  1:
 RMSU=  2.54D-07    CP:  1.00D+00  8.88D-01  9.14D-01
 E= -5263.22789404130     Delta-E=       -0.000000055270 Rises=F Damp=F
 DIIS: error= 3.28D-06 at cycle  24 NSaved=  20.
 NSaved=20 IEnMin=20 EnMin= -5263.22789404130     IErMin=20 ErrMin= 3.28D-06
 ErrMax= 3.28D-06  0.00D+00 EMaxC= 1.00D-01 BMatC= 7.64D-08 BMatP= 3.61D-07
 IDIUse=1 WtCom= 1.00D+00 WtEn= 0.00D+00
 Coeff-Com: -0.457D-05-0.687D-06-0.143D-04 0.950D-05 0.417D-05 0.151D-04
 Coeff-Com: -0.120D-04-0.227D-04-0.550D-04 0.239D-03 0.216D-02 0.414D-03
 Coeff-Com: -0.460D-02-0.803D-02-0.689D-02 0.321D-02 0.465D-01 0.109D+00
 Coeff-Com:  0.315D+00 0.544D+00
 Coeff:     -0.457D-05-0.687D-06-0.143D-04 0.950D-05 0.417D-05 0.151D-04
 Coeff:     -0.120D-04-0.227D-04-0.550D-04 0.239D-03 0.216D-02 0.414D-03
 Coeff:     -0.460D-02-0.803D-02-0.689D-02 0.321D-02 0.465D-01 0.109D+00
 Coeff:      0.315D+00 0.544D+00
 Gap=     0.084 Goal=   None    Shift=    0.000
 Gap=     0.024 Goal=   None    Shift=    0.000
 RMSDP=1.44D-07 MaxDP=1.39D-05 DE=-5.53D-08 OVMax= 8.01D-05

 Cycle  25  Pass 1  IDiag  1:
 RMSU=  1.28D-07    CP:  1.00D+00  9.04D-01  9.58D-01  8.18D-01
 E= -5263.22789405351     Delta-E=       -0.000000012209 Rises=F Damp=F
 DIIS: error= 1.77D-06 at cycle  25 NSaved=  20.
 NSaved=20 IEnMin=20 EnMin= -5263.22789405351     IErMin=20 ErrMin= 1.77D-06
 ErrMax= 1.77D-06  0.00D+00 EMaxC= 1.00D-01 BMatC= 2.30D-08 BMatP= 7.64D-08
 IDIUse=1 WtCom= 1.00D+00 WtEn= 0.00D+00
 Coeff-Com:  0.146D-04-0.194D-04-0.484D-05 0.106D-05 0.254D-05-0.428D-05
 Coeff-Com:  0.135D-03 0.121D-03 0.336D-04-0.766D-03-0.235D-03 0.814D-03
 Coeff-Com:  0.184D-02 0.938D-03-0.546D-02-0.167D-01-0.812D-02 0.102D+00
 Coeff-Com:  0.394D+00 0.531D+00
 Coeff:      0.146D-04-0.194D-04-0.484D-05 0.106D-05 0.254D-05-0.428D-05
 Coeff:      0.135D-03 0.121D-03 0.336D-04-0.766D-03-0.235D-03 0.814D-03
 Coeff:      0.184D-02 0.938D-03-0.546D-02-0.167D-01-0.812D-02 0.102D+00
 Coeff:      0.394D+00 0.531D+00
 Gap=     0.084 Goal=   None    Shift=    0.000
 Gap=     0.024 Goal=   None    Shift=    0.000
 RMSDP=7.95D-08 MaxDP=7.81D-06 DE=-1.22D-08 OVMax= 4.59D-05

 Cycle  26  Pass 1  IDiag  1:
 RMSU=  6.83D-08    CP:  1.00D+00  9.15D-01  9.83D-01  9.11D-01  8.74D-01
 E= -5263.22789405756     Delta-E=       -0.000000004049 Rises=F Damp=F
 DIIS: error= 1.12D-06 at cycle  26 NSaved=  20.
 NSaved=20 IEnMin=20 EnMin= -5263.22789405756     IErMin=20 ErrMin= 1.12D-06
 ErrMax= 1.12D-06  0.00D+00 EMaxC= 1.00D-01 BMatC= 6.21D-09 BMatP= 2.30D-08
 IDIUse=1 WtCom= 1.00D+00 WtEn= 0.00D+00
 Coeff-Com:  0.849D-05-0.104D-04-0.383D-05-0.121D-05 0.314D-05 0.767D-04
 Coeff-Com:  0.745D-04-0.661D-04-0.102D-02-0.122D-03 0.168D-02 0.291D-02
 Coeff-Com:  0.202D-02-0.458D-02-0.213D-01-0.278D-01-0.152D-02 0.139D+00
 Coeff-Com:  0.358D+00 0.553D+00
 Coeff:      0.849D-05-0.104D-04-0.383D-05-0.121D-05 0.314D-05 0.767D-04
 Coeff:      0.745D-04-0.661D-04-0.102D-02-0.122D-03 0.168D-02 0.291D-02
 Coeff:      0.202D-02-0.458D-02-0.213D-01-0.278D-01-0.152D-02 0.139D+00
 Coeff:      0.358D+00 0.553D+00
 Gap=     0.084 Goal=   None    Shift=    0.000
 Gap=     0.024 Goal=   None    Shift=    0.000
 RMSDP=3.71D-08 MaxDP=2.88D-06 DE=-4.05D-09 OVMax= 1.10D-05

 Cycle  27  Pass 1  IDiag  1:
 RMSU=  3.28D-08    CP:  1.00D+00  9.19D-01  9.97D-01  9.20D-01  9.44D-01
                    CP:  9.31D-01
 E= -5263.22789405843     Delta-E=       -0.000000000868 Rises=F Damp=F
 DIIS: error= 8.19D-07 at cycle  27 NSaved=  20.
 NSaved=20 IEnMin=20 EnMin= -5263.22789405843     IErMin=20 ErrMin= 8.19D-07
 ErrMax= 8.19D-07  0.00D+00 EMaxC= 1.00D-01 BMatC= 1.85D-09 BMatP= 6.21D-09
 IDIUse=1 WtCom= 1.00D+00 WtEn= 0.00D+00
 Coeff-Com: -0.930D-06-0.226D-05-0.222D-06 0.317D-05-0.518D-05-0.400D-05
 Coeff-Com: -0.694D-04-0.391D-03 0.134D-03 0.887D-03 0.114D-02 0.740D-03
 Coeff-Com: -0.146D-02-0.750D-02-0.134D-01-0.263D-01-0.235D-01 0.643D-01
 Coeff-Com:  0.320D+00 0.686D+00
 Coeff:     -0.930D-06-0.226D-05-0.222D-06 0.317D-05-0.518D-05-0.400D-05
 Coeff:     -0.694D-04-0.391D-03 0.134D-03 0.887D-03 0.114D-02 0.740D-03
 Coeff:     -0.146D-02-0.750D-02-0.134D-01-0.263D-01-0.235D-01 0.643D-01
 Coeff:      0.320D+00 0.686D+00
 Gap=     0.084 Goal=   None    Shift=    0.000
 Gap=     0.024 Goal=   None    Shift=    0.000
 RMSDP=3.20D-08 MaxDP=3.64D-06 DE=-8.68D-10 OVMax= 2.80D-05

 Cycle  28  Pass 1  IDiag  1:
 RMSU=  3.02D-08    CP:  1.00D+00  9.16D-01  9.98D-01  9.47D-01  9.51D-01
                    CP:  8.95D-01  1.14D+00
 E= -5263.22789405915     Delta-E=       -0.000000000722 Rises=F Damp=F
 DIIS: error= 3.24D-07 at cycle  28 NSaved=  20.
 NSaved=20 IEnMin=20 EnMin= -5263.22789405915     IErMin=20 ErrMin= 3.24D-07
 ErrMax= 3.24D-07  0.00D+00 EMaxC= 1.00D-01 BMatC= 3.58D-10 BMatP= 1.85D-09
 IDIUse=1 WtCom= 1.00D+00 WtEn= 0.00D+00
 Coeff-Com:  0.361D-06 0.328D-06 0.921D-06-0.167D-04-0.198D-04-0.244D-04
 Coeff-Com:  0.187D-04 0.106D-03 0.262D-04-0.765D-04-0.245D-04 0.214D-03
 Coeff-Com:  0.330D-03-0.206D-02-0.159D-01-0.478D-01-0.512D-01 0.504D-01
 Coeff-Com:  0.412D+00 0.654D+00
 Coeff:      0.361D-06 0.328D-06 0.921D-06-0.167D-04-0.198D-04-0.244D-04
 Coeff:      0.187D-04 0.106D-03 0.262D-04-0.765D-04-0.245D-04 0.214D-03
 Coeff:      0.330D-03-0.206D-02-0.159D-01-0.478D-01-0.512D-01 0.504D-01
 Coeff:      0.412D+00 0.654D+00
 Gap=     0.084 Goal=   None    Shift=    0.000
 Gap=     0.024 Goal=   None    Shift=    0.000
 RMSDP=1.47D-08 MaxDP=1.55D-06 DE=-7.22D-10 OVMax= 5.81D-06

 Cycle  29  Pass 1  IDiag  1:
 RMSU=  1.06D-08    CP:  1.00D+00  9.17D-01  1.00D+00  9.61D-01  9.71D-01
                    CP:  9.33D-01  1.33D+00  1.15D+00
 E= -5263.22789405915     Delta-E=        0.000000000004 Rises=F Damp=F
 DIIS: error= 2.42D-07 at cycle  29 NSaved=  20.
 NSaved=20 IEnMin=19 EnMin= -5263.22789405915     IErMin=20 ErrMin= 2.42D-07
 ErrMax= 2.42D-07  0.00D+00 EMaxC= 1.00D-01 BMatC= 3.02D-10 BMatP= 3.58D-10
 IDIUse=1 WtCom= 1.00D+00 WtEn= 0.00D+00
 Coeff-Com: -0.149D-06 0.160D-06-0.371D-05-0.671D-05 0.110D-04 0.112D-03
 Coeff-Com:  0.529D-05-0.267D-03-0.349D-03-0.190D-03 0.549D-03 0.232D-02
 Coeff-Com:  0.210D-02-0.445D-02-0.284D-01-0.558D-01-0.486D-01 0.113D+00
 Coeff-Com:  0.480D+00 0.541D+00
 Coeff:     -0.149D-06 0.160D-06-0.371D-05-0.671D-05 0.110D-04 0.112D-03
 Coeff:      0.529D-05-0.267D-03-0.349D-03-0.190D-03 0.549D-03 0.232D-02
 Coeff:      0.210D-02-0.445D-02-0.284D-01-0.558D-01-0.486D-01 0.113D+00
 Coeff:      0.480D+00 0.541D+00
 Gap=     0.084 Goal=   None    Shift=    0.000
 Gap=     0.024 Goal=   None    Shift=    0.000
 RMSDP=9.09D-09 MaxDP=9.41D-07 DE= 3.64D-12 OVMax= 5.57D-06

 SCF Done:  E(UM06L) =  -5263.22789406     A.U. after   29 cycles
            NFock= 29  Conv=0.91D-08     -V/T= 2.0017
 <Sx>= 0.0000 <Sy>= 0.0000 <Sz>= 7.0000 <S**2>=56.6813 S= 7.0453
 <L.S>=  0.00000000000    
 KE= 5.254361709239D+03 PE=-2.194954967493D+04 EE= 6.702222182179D+03
 Annihilation of the first spin contaminant:
 S**2 before annihilation    56.6813,   after    56.0057
 Leave Link  502 at Fri Feb 24 17:34:57 2023, MaxMem= 14763950080 cpu:           11134.1 elap:            5871.8
 (Enter /software/commercial/gaussian/g16/AVX2/g16/l508.exe)
 QCSCF skips out because SCF is already converged.
 Leave Link  508 at Fri Feb 24 17:35:00 2023, MaxMem= 14763950080 cpu:               0.0 elap:               0.5
 (Enter /software/commercial/gaussian/g16/AVX2/g16/l601.exe)
 Copying SCF densities to generalized density rwf, IOpCl= 1 IROHF=0.

 **********************************************************************

            Population analysis using the SCF Density.

 **********************************************************************

 Alpha  occ. eigenvalues -- -255.65519-255.65027-255.62950 -30.10608 -30.09994
 Alpha  occ. eigenvalues --  -30.07623 -25.87686 -25.87623 -25.87536 -25.87153
 Alpha  occ. eigenvalues --  -25.86982 -25.86978 -25.85138 -25.84702 -25.84242
 Alpha  occ. eigenvalues --  -19.02712 -18.99792 -18.99269 -18.99116 -18.98992
 Alpha  occ. eigenvalues --  -18.98942 -18.98939 -18.98906 -18.98895 -18.98819
 Alpha  occ. eigenvalues --  -18.98310 -18.98305 -18.98217 -18.98203 -18.97149
 Alpha  occ. eigenvalues --  -14.29449 -14.23980 -10.19020 -10.18911 -10.18572
 Alpha  occ. eigenvalues --  -10.18403 -10.18397 -10.18338  -3.67459  -3.66761
 Alpha  occ. eigenvalues --   -3.64379  -2.41544  -2.41410  -2.41284  -2.40976
 Alpha  occ. eigenvalues --   -2.40634  -2.40613  -2.39275  -2.38376  -2.37471
 Alpha  occ. eigenvalues --   -1.07869  -1.07372  -1.07287  -1.07166  -1.06927
 Alpha  occ. eigenvalues --   -1.06848  -1.05166  -1.04906  -1.00031  -0.99591
 Alpha  occ. eigenvalues --   -0.99578  -0.99330  -0.99254  -0.99131  -0.93944
 Alpha  occ. eigenvalues --   -0.90984  -0.60433  -0.59325  -0.59154  -0.59011
 Alpha  occ. eigenvalues --   -0.58834  -0.58663  -0.54978  -0.54967  -0.50458
 Alpha  occ. eigenvalues --   -0.50248  -0.50000  -0.49136  -0.49042  -0.48588
 Alpha  occ. eigenvalues --   -0.48338  -0.48091  -0.47987  -0.47533  -0.47260
 Alpha  occ. eigenvalues --   -0.47008  -0.46059  -0.45128  -0.44562  -0.43842
 Alpha  occ. eigenvalues --   -0.43498  -0.43195  -0.42840  -0.42179  -0.41732
 Alpha  occ. eigenvalues --   -0.41560  -0.41392  -0.40642  -0.40258  -0.40025
 Alpha  occ. eigenvalues --   -0.39493  -0.39434  -0.39257  -0.38699  -0.38647
 Alpha  occ. eigenvalues --   -0.38370  -0.37812  -0.37647  -0.37245  -0.36466
 Alpha  occ. eigenvalues --   -0.34758  -0.33959  -0.33622  -0.33301  -0.30923
 Alpha  occ. eigenvalues --   -0.30374  -0.30343  -0.30172  -0.29970  -0.29749
 Alpha  occ. eigenvalues --   -0.29646  -0.29533  -0.29367  -0.28643  -0.28565
 Alpha  occ. eigenvalues --   -0.27962  -0.27835  -0.26308  -0.26178  -0.26071
 Alpha  occ. eigenvalues --   -0.25941  -0.23962  -0.23782  -0.23465  -0.22431
 Alpha virt. eigenvalues --   -0.14017  -0.04641  -0.04349  -0.03967  -0.03800
 Alpha virt. eigenvalues --   -0.03572  -0.02998  -0.02719   0.01418   0.02376
 Alpha virt. eigenvalues --    0.05353   0.06485   0.06743   0.07324   0.08047
 Alpha virt. eigenvalues --    0.08184   0.08460   0.08833   0.09037   0.09853
 Alpha virt. eigenvalues --    0.10510   0.12341   0.13776   0.13986   0.15162
 Alpha virt. eigenvalues --    0.15795   0.16214   0.16519   0.17432   0.18174
 Alpha virt. eigenvalues --    0.18599   0.20878   0.21295   0.21485   0.21937
 Alpha virt. eigenvalues --    0.22351   0.22418   0.23016   0.23819   0.24424
 Alpha virt. eigenvalues --    0.24825   0.25336   0.25906   0.26718   0.27360
 Alpha virt. eigenvalues --    0.27838   0.28045   0.28824   0.29204   0.29604
 Alpha virt. eigenvalues --    0.29987   0.30062   0.30387   0.30498   0.31121
 Alpha virt. eigenvalues --    0.31367   0.31688   0.32787   0.33386   0.33913
 Alpha virt. eigenvalues --    0.34023   0.34735   0.35098   0.35581   0.35996
 Alpha virt. eigenvalues --    0.36880   0.37370   0.37623   0.37924   0.38277
 Alpha virt. eigenvalues --    0.38650   0.39018   0.39500   0.39578   0.40030
 Alpha virt. eigenvalues --    0.40142   0.40397   0.40767   0.41184   0.41816
 Alpha virt. eigenvalues --    0.42320   0.42733   0.42950   0.43723   0.44085
 Alpha virt. eigenvalues --    0.44440   0.44866   0.46156   0.47389   0.47542
 Alpha virt. eigenvalues --    0.48231   0.48572   0.49905   0.50185   0.50894
 Alpha virt. eigenvalues --    0.51168   0.51586   0.52288   0.53268   0.53641
 Alpha virt. eigenvalues --    0.53978   0.54231   0.54633   0.55166   0.55560
 Alpha virt. eigenvalues --    0.56417   0.57299   0.58029   0.58341   0.59276
 Alpha virt. eigenvalues --    0.59810   0.60619   0.61110   0.62288   0.62851
 Alpha virt. eigenvalues --    0.63519   0.64415   0.65347   0.65949   0.66282
 Alpha virt. eigenvalues --    0.66884   0.67670   0.68777   0.68983   0.69456
[...]
 ErrMax= 3.83D-08  0.00D+00 EMaxC= 1.00D-01 BMatC= 1.19D-13 BMatP= 6.06D-13
 IDIUse=1 WtCom= 1.00D+00 WtEn= 0.00D+00
 Coeff-Com:  0.138D-03-0.436D-02-0.282D-02-0.260D-01 0.327D+00 0.706D+00
 Coeff:      0.138D-03-0.436D-02-0.282D-02-0.260D-01 0.327D+00 0.706D+00
 Gap=     0.300 Goal=   None    Shift=    0.000
 Gap=     0.300 Goal=   None    Shift=    0.000
 RMSDP=3.90D-09 MaxDP=5.05D-08 DE=-7.11D-14 OVMax= 7.56D-08

 SCF Done:  E(UM06L) =  -76.4431620499     A.U. after   11 cycles
            NFock= 11  Conv=0.39D-08     -V/T= 2.0033
 <Sx>= 0.0000 <Sy>= 0.0000 <Sz>= 0.0000 <S**2>=-0.0000 S=-0.0000
 <L.S>=  0.00000000000    
 KE= 7.619197416597D+01 PE=-1.991412784919D+02 EE= 3.741027402898D+01
 Annihilation of the first spin contaminant:
 S**2 before annihilation    -0.0000,   after    -0.0000
 Leave Link  502 at Fri Feb 24 21:58:14 2023, MaxMem= 14763950080 cpu:               4.2 elap:               9.9
 (Enter /software/commercial/gaussian/g16/AVX2/g16/l508.exe)
 QCSCF skips out because SCF is already converged.
 Leave Link  508 at Fri Feb 24 21:58:18 2023, MaxMem= 14763950080 cpu:               0.0 elap:               1.5
 (Enter /software/commercial/gaussian/g16/AVX2/g16/l601.exe)
 Copying SCF densities to generalized density rwf, IOpCl= 1 IROHF=0.

 **********************************************************************

            Population analysis using the SCF Density.

 **********************************************************************

 Alpha  occ. eigenvalues --  -18.96272  -0.98063  -0.48815  -0.34806  -0.26788
 Alpha virt. eigenvalues --    0.03228   0.09733   0.35058   0.39555   0.43661
 Alpha virt. eigenvalues --    0.44026   0.56421   0.57244   1.16232   1.19043
 Alpha virt. eigenvalues --    1.30055   1.52856   1.64833   1.76865   2.01336
 Alpha virt. eigenvalues --    2.09266   2.12745   2.32250   2.41684   2.62821
 Alpha virt. eigenvalues --    2.65103   2.69111   2.84287   3.73412   4.01101
 Alpha virt. eigenvalues --    5.23050   5.32902   5.50683   5.52302   5.57862
 Alpha virt. eigenvalues --    6.13022   6.32433   6.42790   6.48887   6.54994
 Alpha virt. eigenvalues --    7.04981   7.14278  43.44148
  Beta  occ. eigenvalues --  -18.96272  -0.98063  -0.48815  -0.34806  -0.26788
  Beta virt. eigenvalues --    0.03228   0.09733   0.35058   0.39555   0.43661
  Beta virt. eigenvalues --    0.44026   0.56421   0.57244   1.16232   1.19043
  Beta virt. eigenvalues --    1.30055   1.52856   1.64833   1.76865   2.01336
  Beta virt. eigenvalues --    2.09266   2.12745   2.32250   2.41684   2.62821
  Beta virt. eigenvalues --    2.65103   2.69111   2.84287   3.73412   4.01101
  Beta virt. eigenvalues --    5.23050   5.32902   5.50683   5.52302   5.57862
  Beta virt. eigenvalues --    6.13022   6.32433   6.42790   6.48887   6.54994
  Beta virt. eigenvalues --    7.04981   7.14278  43.44148
          Condensed to atoms (all electrons):
              32         33         34
    32  O    8.058061   0.289152   0.288879
    33  H    0.289152   0.410073  -0.017198
    34  H    0.288879  -0.017198   0.410199
          Atomic-Atomic Spin Densities.
              32         33         34
    32  O    0.000000   0.000000   0.000000
    33  H    0.000000   0.000000   0.000000
    34  H    0.000000   0.000000   0.000000
 Mulliken charges and spin densities:
               1          2
     1  O    0.000000   0.000000
     2  O    0.000000   0.000000
     3  C    0.000000   0.000000
     4  H    0.000000   0.000000
     5  O    0.000000   0.000000
     6  O    0.000000   0.000000
     7  C    0.000000   0.000000
     8  H    0.000000   0.000000
     9  O    0.000000   0.000000
    10  O    0.000000   0.000000
    11  O    0.000000   0.000000
    12  C    0.000000   0.000000
    13  H    0.000000   0.000000
    14  O    0.000000   0.000000
    15  O    0.000000   0.000000
    16  C    0.000000   0.000000
    17  H    0.000000   0.000000
    18  Fe   0.000000   0.000000
    19  O    0.000000   0.000000
    20  Fe   0.000000   0.000000
    21  O    0.000000   0.000000
    22  O    0.000000   0.000000
    23  Fe   0.000000   0.000000
    24  O    0.000000   0.000000
    25  C    0.000000   0.000000
    26  H    0.000000   0.000000
    27  C    0.000000   0.000000
    28  H    0.000000   0.000000
    29  N    0.000000   0.000000
    30  N    0.000000   0.000000
    31  O    0.000000   0.000000
    32  O   -0.636093   0.000000
    33  H    0.317973   0.000000
    34  H    0.318120   0.000000
 Sum of Mulliken charges =  -0.00000   0.00000
 Mulliken charges and spin densities with hydrogens summed into heavy atoms:
               1          2
     1  O    0.000000   0.000000
     2  O    0.000000   0.000000
     3  C    0.000000   0.000000
     5  O    0.000000   0.000000
     6  O    0.000000   0.000000
     7  C    0.000000   0.000000
     9  O    0.000000   0.000000
    10  O    0.000000   0.000000
    11  O    0.000000   0.000000
    12  C    0.000000   0.000000
    14  O    0.000000   0.000000
    15  O    0.000000   0.000000
    16  C    0.000000   0.000000
    18  Fe   0.000000   0.000000
    19  O    0.000000   0.000000
    20  Fe   0.000000   0.000000
    21  O    0.000000   0.000000
    22  O    0.000000   0.000000
    23  Fe   0.000000   0.000000
    24  O    0.000000   0.000000
    25  C    0.000000   0.000000
    27  C    0.000000   0.000000
    29  N    0.000000   0.000000
    30  N    0.000000   0.000000
    31  O    0.000000   0.000000
    32  O   -0.000000   0.000000
         Mulliken charges and spin densities condensed to fragments:
      1      0.000000      0.000000
      2      0.000000      0.000000
      3     -0.000000      0.000000
 Electronic spatial extent (au):  <R**2>=           1596.6420
 Charge=             -0.0000 electrons
 Dipole moment (field-independent basis, Debye):
    X=             -1.7618    Y=              0.9881    Z=             -0.2040  Tot=              2.0302
 Quadrupole moment (field-independent basis, Debye-Ang):
   XX=             12.2829   YY=            -14.9524   ZZ=             -4.6150
   XY=              1.1241   XZ=             -0.5203   YZ=              1.5053
 Traceless Quadrupole moment (field-independent basis, Debye-Ang):
   XX=             14.7110   YY=            -12.5242   ZZ=             -2.1868
   XY=              1.1241   XZ=             -0.5203   YZ=              1.5053
 Octapole moment (field-independent basis, Debye-Ang**2):
  XXX=            -47.5395  YYY=            131.1380  ZZZ=            -10.6650  XYY=             56.2599
  XXY=            -14.2355  XXZ=              6.4810  XZZ=             22.0197  YZZ=             19.2860
  YYZ=            -14.2395  XYZ=             -2.1600
 Hexadecapole moment (field-independent basis, Debye-Ang**3):
 XXXX=            -19.9347 YYYY=           -922.2809 ZZZZ=            -22.7853 XXXY=            -12.6342
 XXXZ=            -29.4980 YYYX=           -611.6333 YYYZ=            111.0211 ZZZX=             52.9646
 ZZZY=             43.6944 XXYY=           -279.7365 XXZZ=           -109.2388 YYZZ=            -86.8263
 XXYZ=             -0.3621 YYXZ=             54.3185 ZZXY=            -93.2395
 N-N= 9.095868247032D+00 E-N=-1.991412784330D+02  KE= 7.619197416597D+01
 There are a total of       66422 grid points.
 ElSum from          density=        9.9999999965
 ElSum from atomic densities=        9.9999999857
 Hirshfeld populations at iteration   1 (CA, CB, DipXYZ):
               1          2          3          4          5
     1  O    0.000000   0.000000   0.000000   0.000000   0.000000
     2  O    0.000000   0.000000   0.000000   0.000000   0.000000
     3  C    0.000000   0.000000   0.000000   0.000000   0.000000
     4  H    0.000000   0.000000   0.000000   0.000000   0.000000
     5  O    0.000000   0.000000   0.000000   0.000000   0.000000
     6  O    0.000000   0.000000   0.000000   0.000000   0.000000
     7  C    0.000000   0.000000   0.000000   0.000000   0.000000
     8  H    0.000000   0.000000   0.000000   0.000000   0.000000
     9  O    0.000000   0.000000   0.000000   0.000000   0.000000
    10  O    0.000000   0.000000   0.000000   0.000000   0.000000
    11  O    0.000000   0.000000   0.000000   0.000000   0.000000
    12  C    0.000000   0.000000   0.000000   0.000000   0.000000
    13  H    0.000000   0.000000   0.000000   0.000000   0.000000
    14  O    0.000000   0.000000   0.000000   0.000000   0.000000
    15  O    0.000000   0.000000   0.000000   0.000000   0.000000
    16  C    0.000000   0.000000   0.000000   0.000000   0.000000
    17  H    0.000000   0.000000   0.000000   0.000000   0.000000
    18  Fe   0.000000   0.000000   0.000000   0.000000   0.000000
    19  O    0.000000   0.000000   0.000000   0.000000   0.000000
    20  Fe   0.000000   0.000000   0.000000   0.000000   0.000000
    21  O    0.000000   0.000000   0.000000   0.000000   0.000000
    22  O    0.000000   0.000000   0.000000   0.000000   0.000000
    23  Fe   0.000000   0.000000   0.000000   0.000000   0.000000
    24  O    0.000000   0.000000   0.000000   0.000000   0.000000
    25  C    0.000000   0.000000   0.000000   0.000000   0.000000
    26  H    0.000000   0.000000   0.000000   0.000000   0.000000
    27  C    0.000000   0.000000   0.000000   0.000000   0.000000
    28  H    0.000000   0.000000   0.000000   0.000000   0.000000
    29  N    0.000000   0.000000   0.000000   0.000000   0.000000
    30  N    0.000000   0.000000   0.000000   0.000000   0.000000
    31  O    0.000000   0.000000   0.000000   0.000000   0.000000
    32  O    4.154495   4.154495  -0.147822   0.082926  -0.017429
    33  H    0.422812   0.422812  -0.101524   0.068162  -0.194142
    34  H    0.422693   0.422693  -0.142905   0.068939   0.165629
       Tot   5.000000   5.000000  -0.392251   0.220027  -0.045942

 Dip from Atomic Chgs             -0.300881   0.168713  -0.034312
         Total Dipole             -0.693131   0.388740  -0.080254

 Hirshfeld charges, spin densities, dipoles, and CM5 charges using IRadAn=      5:
              Q-H        S-H        Dx         Dy         Dz        Q-CM5   
     1  O    0.000000   0.000000   0.000000   0.000000   0.000000   0.000000
     2  O    0.000000   0.000000   0.000000   0.000000   0.000000   0.000000
     3  C    0.000000   0.000000   0.000000   0.000000   0.000000   0.000000
     4  H    0.000000   0.000000   0.000000   0.000000   0.000000   0.000000
     5  O    0.000000   0.000000   0.000000   0.000000   0.000000   0.000000
     6  O    0.000000   0.000000   0.000000   0.000000   0.000000   0.000000
     7  C    0.000000   0.000000   0.000000   0.000000   0.000000   0.000000
     8  H    0.000000   0.000000   0.000000   0.000000   0.000000   0.000000
     9  O    0.000000   0.000000   0.000000   0.000000   0.000000   0.000000
    10  O    0.000000   0.000000   0.000000   0.000000   0.000000   0.000000
    11  O    0.000000   0.000000   0.000000   0.000000   0.000000   0.000000
    12  C    0.000000   0.000000   0.000000   0.000000   0.000000   0.000000
    13  H    0.000000   0.000000   0.000000   0.000000   0.000000   0.000000
    14  O    0.000000   0.000000   0.000000   0.000000   0.000000   0.000000
    15  O    0.000000   0.000000   0.000000   0.000000   0.000000   0.000000
    16  C    0.000000   0.000000   0.000000   0.000000   0.000000   0.000000
    17  H    0.000000   0.000000   0.000000   0.000000   0.000000   0.000000
    18  Fe   0.000000   0.000000   0.000000   0.000000   0.000000   0.000000
    19  O    0.000000   0.000000   0.000000   0.000000   0.000000   0.000000
    20  Fe   0.000000   0.000000   0.000000   0.000000   0.000000   0.000000
    21  O    0.000000   0.000000   0.000000   0.000000   0.000000   0.000000
    22  O    0.000000   0.000000   0.000000   0.000000   0.000000   0.000000
    23  Fe   0.000000   0.000000   0.000000   0.000000   0.000000   0.000000
    24  O    0.000000   0.000000   0.000000   0.000000   0.000000   0.000000
    25  C    0.000000   0.000000   0.000000   0.000000   0.000000   0.000000
    26  H    0.000000   0.000000   0.000000   0.000000   0.000000   0.000000
    27  C    0.000000   0.000000   0.000000   0.000000   0.000000   0.000000
    28  H    0.000000   0.000000   0.000000   0.000000   0.000000   0.000000
    29  N    0.000000   0.000000   0.000000   0.000000   0.000000   0.000000
    30  N    0.000000   0.000000   0.000000   0.000000   0.000000   0.000000
    31  O    0.000000   0.000000   0.000000   0.000000   0.000000   0.000000
    32  O   -0.308990   0.000000  -0.147822   0.082926  -0.017429  -0.636900
    33  H    0.154376   0.000000  -0.101524   0.068162  -0.194142   0.318608
    34  H    0.154614   0.000000  -0.142905   0.068939   0.165629   0.318292
       Tot   0.000000   0.000000  -0.392251   0.220027  -0.045942   0.000000
 Hirshfeld charges and spin densities with hydrogens summed into heavy atoms:
              Q-H        S-H       Q-CM5   
     1  O    0.000000   0.000000   0.000000
     2  O    0.000000   0.000000   0.000000
     3  C    0.000000   0.000000   0.000000
     5  O    0.000000   0.000000   0.000000
     6  O    0.000000   0.000000   0.000000
     7  C    0.000000   0.000000   0.000000
     9  O    0.000000   0.000000   0.000000
    10  O    0.000000   0.000000   0.000000
    11  O    0.000000   0.000000   0.000000
    12  C    0.000000   0.000000   0.000000
    14  O    0.000000   0.000000   0.000000
    15  O    0.000000   0.000000   0.000000
    16  C    0.000000   0.000000   0.000000
    18  Fe   0.000000   0.000000   0.000000
    19  O    0.000000   0.000000   0.000000
    20  Fe   0.000000   0.000000   0.000000
    21  O    0.000000   0.000000   0.000000
    22  O    0.000000   0.000000   0.000000
    23  Fe   0.000000   0.000000   0.000000
    24  O    0.000000   0.000000   0.000000
    25  C    0.000000   0.000000   0.000000
    27  C    0.000000   0.000000   0.000000
    29  N    0.000000   0.000000   0.000000
    30  N    0.000000   0.000000   0.000000
    31  O    0.000000   0.000000   0.000000
    32  O    0.000000   0.000000   0.000000
         Hirshfeld charges and spin densities condensed to fragments:
      1      0.000000      0.000000
      2      0.000000      0.000000
      3      0.000000      0.000000
 
 EQQ=  0.00000000000     EQD=  0.00000000000     EDD= 0.731186233737E-02
 EQQ+QD+DD= 0.731186233737E-02
 
                          Isotropic Fermi Contact Couplings
        Atom                 a.u.       MegaHertz       Gauss      10(-4) cm-1
    32  O(17)              0.00000      -0.00000      -0.00000      -0.00000
    33  H(1)               0.00000       0.00000       0.00000       0.00000
    34  H(1)               0.00000       0.00000       0.00000       0.00000
 --------------------------------------------------------
       Center         ----  Spin Dipole Couplings  ----
                      3XX-RR        3YY-RR        3ZZ-RR
 --------------------------------------------------------
    32   Atom        0.000000      0.000000      0.000000
    33   Atom        0.000000      0.000000      0.000000
    34   Atom        0.000000      0.000000      0.000000
 --------------------------------------------------------
                        XY            XZ            YZ
 --------------------------------------------------------
    32   Atom        0.000000      0.000000      0.000000
    33   Atom        0.000000      0.000000      0.000000
    34   Atom        0.000000      0.000000      0.000000
 --------------------------------------------------------


 ---------------------------------------------------------------------------------
              Anisotropic Spin Dipole Couplings in Principal Axis System
 ---------------------------------------------------------------------------------

       Atom             a.u.   MegaHertz   Gauss  10(-4) cm-1        Axes

              Baa     0.0000    -0.000    -0.000    -0.000  1.0000  0.0000  0.0000
    32 O(17)  Bbb     0.0000    -0.000    -0.000    -0.000 -0.0000  1.0000  0.0000
              Bcc     0.0000    -0.000    -0.000    -0.000  0.0000  0.0000  1.0000
 
              Baa     0.0000     0.000     0.000     0.000  1.0000  0.0000  0.0000
    33 H(1)   Bbb     0.0000     0.000     0.000     0.000 -0.0000  1.0000  0.0000
              Bcc     0.0000     0.000     0.000     0.000  0.0000  0.0000  1.0000
 
              Baa     0.0000     0.000     0.000     0.000  1.0000  0.0000  0.0000
    34 H(1)   Bbb     0.0000     0.000     0.000     0.000 -0.0000  1.0000  0.0000
              Bcc     0.0000     0.000     0.000     0.000  0.0000  0.0000  1.0000
 

 ---------------------------------------------------------------------------------

 No NMR shielding tensors so no spin-rotation constants.
 Leave Link  601 at Fri Feb 24 21:58:21 2023, MaxMem= 14763950080 cpu:               0.4 elap:               1.6
 (Enter /software/commercial/gaussian/g16/AVX2/g16/l122.exe)
 CPIOFr:  IOpCl= 1 IRwI=-1 IRwCP=  731 ICalc=  6 LCPTot=     1216073 Len1MO=     4033158 IndFrg=    29448179
 Restoring MOs from calculation   1 to rwf.
 CPIOFr:  IOpCl= 1 IRwI=-2 IRwCP=  731 ICalc=  0 LCPTot=     1216073 Len1MO=     4033158 IndFrg=     5249231
 Counterpoise corrected energy =   -5263.224414691511
                   BSSE energy =       0.003479367636
              sum of fragments =   -5263.217229772485
           complexation energy =      -6.69 kcal/mole (raw)
           complexation energy =      -4.51 kcal/mole (corrected)
 Leave Link  122 at Fri Feb 24 21:58:26 2023, MaxMem= 14763950080 cpu:               0.1 elap:               4.3
 (Enter /software/commercial/gaussian/g16/AVX2/g16/l9999.exe)
 Unable to Open any file for archive entry.
 1\1\GINC-NODE1144\SP\UM06L\Gen\C6H8Fe3N2O15(15)\SVICCHI\24-Feb-2023\0\
 \#p gen um06l int=grid=ultrafine scf=(xqc,intrep,maxconventionalcycle=
 150) pop=(hirshfeld) nosymm counterpoise=3\\FeFeFe-AO-1xH2O\\0,15\O,0,
 -0.043318,0.011614,-0.019254\O,0,-0.008489,0.020749,2.234666\C,0,0.519
 897,0.012031,1.111677\H,0,1.623463,0.006737,1.086666\O,0,-4.927222,-1.
 618096,-0.46631\O,0,-3.855542,0.218805,-1.19839\C,0,-4.852826,-0.52660
 8,-1.080156\H,0,-5.777923,-0.184788,-1.578069\O,0,-1.372791,-2.207352,
 3.459471\O,0,-1.734081,-1.614913,-1.576761\O,0,-2.699643,-3.349878,-0.
 510803\C,0,-2.015888,-2.826554,-1.419924\H,0,-1.611174,-3.519866,-2.17
 7345\O,0,-2.486865,1.6526,2.452551\O,0,-2.20165,1.878095,0.229013\C,0,
 -2.475465,2.294223,1.390246\H,0,-2.73893,3.364299,1.456644\Fe,0,-1.865
 682,-0.206648,3.111964\O,0,-3.817647,-0.611793,3.744034\Fe,0,-3.681151
 ,-2.432221,1.024923\O,0,-5.105879,-1.846268,2.370244\O,0,-2.805448,-3.
 569191,2.377797\Fe,0,-2.014699,-0.03398,-0.31695\O,0,-2.556404,-0.9285
 77,1.198249\C,0,-4.883272,-1.138085,3.394519\H,0,-5.758331,-0.98158,4.
 050309\C,0,-1.855974,-3.311231,3.173134\H,0,-1.417376,-4.195549,3.6673
 27\N,0,-2.030201,-0.128128,6.007863\N,0,-1.850009,0.054475,7.118625\O,
 0,-1.324483,0.393364,4.757232\O,0,-5.218985,-3.991238,0.779762\H,0,-5.
 646524,-3.704147,-0.038697\H,0,-5.82189,-3.700454,1.479531\\Version=ES
 64L-G16RevC.02\HF=-76.443162\S2=0.\S2-1=0.\S2A=0.\RMSD=3.898e-09\Dipol
 e=-1.3699887,-0.7659455,-1.2071674\Quadrupole=20.5197255,-0.7780023,-1
 9.7417233,7.3784769,0.4480884,-1.7813203\PG=C01 [X(C6H8Fe3N2O15)]\\@
 The archive entry for this job was punched.


 ACTORS ARE SO FORTUNATE.  THEY CAN CHOOSE WHETHER
 THEY WILL APPEAR IN A TRAGEDY OR IN COMEDY,
 WHETHER THEY WILL SUFFER OF MAKE MERRY,
 LAUGH OR SHED TEARS.  BUT IN REAL LIFE IT IS DIFFERENT.
 MOST MEN AND WOMEN ARE FORCED TO PERFORM
 PARTS FOR WHICH THEY HAVE NO QUALIFICATIONS.
 THE WORLD IS A STAGE, BUT THE PLAY IS BADLY CAST.

                                   -- OSCAR WILDE
 Job cpu time:       0 days 11 hours 16 minutes 53.5 seconds.
 Elapsed time:       0 days  6 hours  0 minutes 45.3 seconds.
 File lengths (MBytes):  RWF=   1054 Int=      0 D2E=      0 Chk=    275 Scr=      1
 Normal termination of Gaussian 16 at Fri Feb 24 21:58:32 2023.
