 Entering Gaussian System, Link 0=g16
 Input=FeFeFe-TS1-2xH2O-QST2-H2O_relax-1xH2O-opt.gjf
 Output=FeFeFe-TS1-2xH2O-QST2-H2O_relax-1xH2O-opt.log
 AtFile(1): /zfs/curium/svicchi/00-MOF/01-Gaussian/zw-basis-set/def2-TZVP/H.gbs
            !----------------------------------------------------------------------
            ! Basis Set Exchange
            ! Version v0.9
            ! https://www.basissetexchange.org
            !----------------------------------------------------------------------
            !   Basis set: def2-TZVP
            ! Description: def2-TZVP
            !        Role: orbital
            !     Version: 1  (Data from Turbomole 7.3)
            !----------------------------------------------------------------------
            H     0
            S    3   1.00
                 34.0613410              0.60251978D-02
                  5.1235746              0.45021094D-01
                  1.1646626              0.20189726
            S    1   1.00
                  0.32723041             1.0000000
            S    1   1.00
                  0.10307241             1.0000000
            P    1   1.00
                  0.8000000              1.0000000
 AtFile(1): /zfs/curium/svicchi/00-MOF/01-Gaussian/zw-basis-set/def2-TZVP/O.gbs
            !----------------------------------------------------------------------
            ! Basis Set Exchange
            ! Version v0.9
            ! https://www.basissetexchange.org
            !----------------------------------------------------------------------
            !   Basis set: def2-TZVP
            ! Description: def2-TZVP
            !        Role: orbital
            !     Version: 1  (Data from Turbomole 7.3)
            !----------------------------------------------------------------------
            O     0
            S    6   1.00
              27032.3826310              0.21726302465D-03
               4052.3871392              0.16838662199D-02
                922.32722710             0.87395616265D-02
                261.24070989             0.35239968808D-01
                 85.354641351            0.11153519115
                 31.035035245            0.25588953961
            S    2   1.00
                 12.260860728            0.39768730901
                  4.9987076005           0.24627849430
            S    1   1.00
                  1.1703108158           1.0000000
            S    1   1.00
                  0.46474740994          1.0000000
            S    1   1.00
                  0.18504536357          1.0000000
            P    4   1.00
                 63.274954801            0.60685103418D-02
                 14.627049379            0.41912575824D-01
                  4.4501223456           0.16153841088
                  1.5275799647           0.35706951311
            P    1   1.00
                  0.52935117943           .44794207502
            P    1   1.00
                  0.17478421270           .24446069663
            D    1   1.00
                  2.31400000             1.0000000
            D    1   1.00
                  0.64500000             1.0000000
            F    1   1.00
                  1.42800000             1.0000000
 AtFile(1): /zfs/curium/svicchi/00-MOF/01-Gaussian/zw-basis-set/def2-TZVP/C.gbs
            !----------------------------------------------------------------------
            ! Basis Set Exchange
            ! Version v0.9
            ! https://www.basissetexchange.org
            !----------------------------------------------------------------------
            !   Basis set: def2-TZVP
            ! Description: def2-TZVP
            !        Role: orbital
            !     Version: 1  (Data from Turbomole 7.3)
            !----------------------------------------------------------------------
            C     0
            S    6   1.00
              13575.3496820              0.22245814352D-03
               2035.2333680              0.17232738252D-02
                463.22562359             0.89255715314D-02
                131.20019598             0.35727984502D-01
                 42.853015891            0.11076259931
                 15.584185766            0.24295627626
            S    2   1.00
                  6.2067138508           0.41440263448
                  2.5764896527           0.23744968655
            S    1   1.00
                  0.57696339419          1.0000000
            S    1   1.00
                  0.22972831358          1.0000000
            S    1   1.00
                  0.95164440028D-01      1.0000000
            P    4   1.00
                 34.697232244            0.53333657805D-02
                  7.9582622826           0.35864109092D-01
                  2.3780826883           0.14215873329
                  0.81433208183          0.34270471845
            P    1   1.00
                  0.28887547253           .46445822433
            P    1   1.00
                  0.10056823671           .24955789874
            D    1   1.00
                  1.09700000             1.0000000
            D    1   1.00
                  0.31800000             1.0000000
            F    1   1.00
                  0.76100000             1.0000000
 AtFile(1): /zfs/curium/svicchi/00-MOF/01-Gaussian/zw-basis-set/def2-TZVP/Fe.gbs
            !----------------------------------------------------------------------
            ! Basis Set Exchange
            ! Version v0.9
            ! https://www.basissetexchange.org
            !----------------------------------------------------------------------
            !   Basis set: def2-TZVP
            ! Description: def2-TZVP
            !        Role: orbital
            !     Version: 1  (Data from Turbomole 7.3)
            !----------------------------------------------------------------------
            Fe     0
            S    8   1.00
             300784.8463700              0.22806273096D-03
              45088.9705570              0.17681788761D-02
              10262.5163170              0.91927083490D-02
               2905.2897293              0.37355495807D-01
                946.11487137             0.12151108426
                339.87832894             0.28818881468
                131.94425588             0.41126612677
                 52.111494077            0.21518583573
            S    4   1.00
                329.48839267            -0.24745216477D-01
                101.92332739            -0.11683089050
                 16.240462745            0.55293621136
                  6.8840675801           0.53601640182
            S    2   1.00
                 10.470693782           -0.22912708577
                  1.7360039648           0.71159319984
            S    1   1.00
                  0.72577288979          1.0000000
            S    1   1.00
                  0.11595528203          1.0000000
            S    1   1.00
                  0.41968227746D-01      1.0000000
            P    6   1.00
               1585.3959970              0.23793960179D-02
                375.38006499             0.19253154755D-01
                120.31816501             0.90021836536D-01
                 44.788749031            0.25798172356
                 17.829278584            0.41492649744
                  7.2247153786           0.24207474784
            P    3   1.00
                 28.143219756           -0.29041755152D-01
                  3.8743241412           0.55312260343
                  1.5410752281           0.96771136842
            P    1   1.00
                  0.58285615250          1.0000000
            P    1   1.00
                  0.1349150              1.0000000
            D    4   1.00
                 61.996675034            0.11971972255D-01
                 17.873732552            0.73210135410D-01
                  6.2744782934           0.23103094314
                  2.3552337175           0.39910706494
            D    1   1.00
                  0.85432239901           .41391589765
            D    1   1.00
                  0.27869254413           .21909269782
            D    1   1.00
                  0.0910000              1.0000000
            F    1   1.00
                  1.5980000              1.0000000
 AtFile(1): /zfs/curium/svicchi/00-MOF/01-Gaussian/zw-basis-set/def2-TZVP/N.gbs
            !----------------------------------------------------------------------
            ! Basis Set Exchange
            ! Version v0.9
            ! https://www.basissetexchange.org
            !----------------------------------------------------------------------
            !   Basis set: def2-TZVP
            ! Description: def2-TZVP
            !        Role: orbital
            !     Version: 1  (Data from Turbomole 7.3)
            !----------------------------------------------------------------------
            N     0
            S    6   1.00
              19730.8006470              0.21887984991D-03
               2957.8958745              0.16960708803D-02
                673.22133595             0.87954603538D-02
                190.68249494             0.35359382605D-01
                 62.295441898            0.11095789217
                 22.654161182            0.24982972552
            S    2   1.00
                  8.9791477428           0.40623896148
                  3.6863002370           0.24338217176
            S    1   1.00
                  0.84660076805          1.0000000
            S    1   1.00
                  0.33647133771          1.0000000
            S    1   1.00
                  0.13647653675          1.0000000
            P    4   1.00
                 49.200380510            0.55552416751D-02
                 11.346790537            0.38052379723D-01
                  3.4273972411           0.14953671029
                  1.1785525134           0.34949305230
            P    1   1.00
                  0.41642204972           .45843153697
            P    1   1.00
                  0.14260826011           .24428771672
            D    1   1.00
                  1.65400000             1.0000000
            D    1   1.00
                  0.46900000             1.0000000
            F    1   1.00
                  1.09300000             1.0000000
 Initial command:
 /software/commercial/gaussian/g16/AVX2/g16/l1.exe "/scratch1/svicchi/G09-176073.pbs02/Gau-1007298.inp" -scrdir="/scratch1/svicchi/G09-176073.pbs02/"
 Entering Link 1 = /software/commercial/gaussian/g16/AVX2/g16/l1.exe PID=   1007299.
  
 Copyright (c) 1988-2021, Gaussian, Inc.  All Rights Reserved.
  
 This is part of the Gaussian(R) 16 program.  It is based on
 the Gaussian(R) 09 system (copyright 2009, Gaussian, Inc.),
 the Gaussian(R) 03 system (copyright 2003, Gaussian, Inc.),
 the Gaussian(R) 98 system (copyright 1998, Gaussian, Inc.),
 the Gaussian(R) 94 system (copyright 1995, Gaussian, Inc.),
 the Gaussian 92(TM) system (copyright 1992, Gaussian, Inc.),
 the Gaussian 90(TM) system (copyright 1990, Gaussian, Inc.),
 the Gaussian 88(TM) system (copyright 1988, Gaussian, Inc.),
 the Gaussian 86(TM) system (copyright 1986, Carnegie Mellon
 University), and the Gaussian 82(TM) system (copyright 1983,
 Carnegie Mellon University). Gaussian is a federally registered
 trademark of Gaussian, Inc.
  
 This software contains proprietary and confidential information,
 including trade secrets, belonging to Gaussian, Inc.
  
 This software is provided under written license and may be
 used, copied, transmitted, or stored only in accord with that
 written license.
  
 The following legend is applicable only to US Government
 contracts under FAR:
  
                    RESTRICTED RIGHTS LEGEND
  
 Use, reproduction and disclosure by the US Government is
 subject to restrictions as set forth in subparagraphs (a)
 and (c) of the Commercial Computer Software - Restricted
 Rights clause in FAR 52.227-19.
  
 Gaussian, Inc.
 340 Quinnipiac St., Bldg. 40, Wallingford CT 06492
  
  
 ---------------------------------------------------------------
 Warning -- This program may not be used in any manner that
 competes with the business of Gaussian, Inc. or will provide
 assistance to any competitor of Gaussian, Inc.  The licensee
 of this program is prohibited from giving any competitor of
 Gaussian, Inc. access to this program.  By using this program,
 the user acknowledges that Gaussian, Inc. is engaged in the
 business of creating and licensing software in the field of
 computational chemistry and represents and warrants to the
 licensee that it is not a competitor of Gaussian, Inc. and that
 it will not use this program in any manner prohibited above.
 ---------------------------------------------------------------
  

 Cite this work as:
 Gaussian 16, Revision C.02,
 M. J. Frisch, G. W. Trucks, H. B. Schlegel, G. E. Scuseria, 
 M. A. Robb, J. R. Cheeseman, G. Scalmani, V. Barone, 
 G. A. Petersson, H. Nakatsuji, X. Li, M. Caricato, A. V. Marenich, 
 J. Bloino, B. G. Janesko, R. Gomperts, B. Mennucci, H. P. Hratchian, 
 J. V. Ortiz, A. F. Izmaylov, J. L. Sonnenberg, D. Williams-Young, 
 F. Ding, F. Lipparini, F. Egidi, J. Goings, B. Peng, A. Petrone, 
 T. Henderson, D. Ranasinghe, V. G. Zakrzewski, J. Gao, N. Rega, 
 G. Zheng, W. Liang, M. Hada, M. Ehara, K. Toyota, R. Fukuda, 
 J. Hasegawa, M. Ishida, T. Nakajima, Y. Honda, O. Kitao, H. Nakai, 
 T. Vreven, K. Throssell, J. A. Montgomery, Jr., J. E. Peralta, 
 F. Ogliaro, M. J. Bearpark, J. J. Heyd, E. N. Brothers, K. N. Kudin, 
 V. N. Staroverov, T. A. Keith, R. Kobayashi, J. Normand, 
 K. Raghavachari, A. P. Rendell, J. C. Burant, S. S. Iyengar, 
 J. Tomasi, M. Cossi, J. M. Millam, M. Klene, C. Adamo, R. Cammi, 
 J. W. Ochterski, R. L. Martin, K. Morokuma, O. Farkas, 
 J. B. Foresman, and D. J. Fox, Gaussian, Inc., Wallingford CT, 2019.
 
 ******************************************
 Gaussian 16:  ES64L-G16RevC.02  7-Dec-2021
                20-Feb-2023 
 ******************************************
 %NProcShared=2
 Will use up to    2 processors via shared memory.
 %mem=110gb
 %chk=/scratch1/svicchi/G09-176073.pbs02/00-opt/FeFeFe-TS1-2xH2O-QST2-H2O_relax-1
 xH2O-opt.chk
 ----------------------------------------------------------------------
 #p opt=(TS,calcall,cartesian,maxcycle=500) gen um06l int=grid=ultrafin
 e scf=(xqc,intrep,maxconventionalcycle=150) pop=(hirshfeld) nosymm
 ----------------------------------------------------------------------
 1/5=1,6=500,10=4,18=10,26=4,38=1/1,3;
 2/12=2,15=1,17=6,18=5,29=2,40=1/2;
 3/5=7,11=2,25=1,30=1,71=2,74=-53,75=-5,116=2,140=1/1,2,3;
 4//1;
 5/5=2,8=3,13=1,17=20,38=5,85=150/2,8;
 8/6=4,10=90,11=11/1;
 11/6=1,8=1,9=11,15=111,16=1,31=1/1,2,10;
 10/6=1,31=1/2;
 6/7=2,8=2,9=2,10=2,18=1,28=1,79=1/1;
 7/7=1,10=1,25=1,30=1/1,2,3,16;
 1/5=1,6=500,10=4,18=10,26=4/3(3);
 2/15=1,29=1/2;
 7/7=1,8=1,9=1,25=1,30=1,44=-1/16;
 99/12=1/99;
 2/15=1,29=1/2;
 3/5=7,6=1,11=2,25=1,30=1,71=2,74=-53,75=-5,82=7,116=2,140=1/1,2,3;
 4/5=5,16=3,69=1/1;
 5/5=2,8=3,13=1,17=20,38=5,85=150/2,8;
 8/6=4,10=90,11=11/1;
 11/6=1,8=1,9=11,15=111,16=1,31=1/1,2,10;
 10/6=1,31=1/2;
 7/7=1,10=1,25=1,30=1/1,2,3,16;
 1/5=1,6=500,10=4,18=10,26=4/3(-8);
 2/15=1,29=1/2;
 6/7=2,8=2,9=2,10=2,18=1,19=2,28=1,79=1/1;
 7/7=1,8=1,9=1,25=1,30=1,44=-1/16;
 99/12=1/99;
 Leave Link    1 at Mon Feb 20 11:37:57 2023, MaxMem= 14763950080 cpu:               0.0 elap:               1.7
 (Enter /software/commercial/gaussian/g16/AVX2/g16/l101.exe)
 -------------------------
 FeFeFe-TS1-1xH2O-reactant
 -------------------------
 Symbolic Z-matrix:
 Charge =  0 Multiplicity =15
 O                    -0.01284   0.01318   0.01611 
 O                    -0.01038   0.00474   2.26641 
 C                     0.53579   0.00469   1.14932 
 H                     1.63978   0.00222   1.13784 
 O                    -4.93641  -1.64626  -0.50724 
 O                    -3.88705   0.21567  -1.19703 
 C                    -4.88166  -0.53003  -1.07642 
 H                    -5.81616  -0.17874  -1.55116 
 O                    -1.38215  -2.21358   3.46876 
 O                    -1.72572  -1.6377   -1.60029 
 O                    -2.69085  -3.36305  -0.51385 
 C                    -2.00972  -2.84769  -1.42729 
 H                    -1.60647  -3.54714  -2.18093 
 O                    -2.4744    1.64285   2.46637 
 O                    -2.2245    1.90934   0.24583 
 C                    -2.48309   2.30473   1.41418 
 H                    -2.75244   3.37212   1.50321 
 Fe                   -1.90552  -0.25803   3.02747 
 O                    -3.83349  -0.61452   3.75355 
 Fe                   -3.67545  -2.41302   1.01085 
 O                    -5.11701  -1.84268   2.36767 
 O                    -2.79868  -3.57671   2.37198 
 Fe                   -1.9709   -0.0022   -0.37806 
 O                    -2.56227  -0.91402   1.15836 
 C                    -4.89745  -1.1438    3.39621 
 H                    -5.77295  -0.9916    4.05319 
 C                    -1.86126  -3.32191   3.17409 
 H                    -1.42008  -4.20237   3.67365 
 N                    -1.8904   -0.01046   5.94175 
 N                    -1.83549   0.07081   7.13353 
 O                    -1.38307   0.36032   4.77977 
 O                    -5.21996  -3.99428   0.77968 
 H                    -5.63503  -3.68986  -0.03888 
 H                    -5.81513  -3.68115   1.47517 
 
 ITRead=  0  0  0  0  0  0  0  0  0  0  0  0  0  0  0  0  0  0  0  0
 ITRead=  0  0  0  0  0  0  0  0  0  0  0  0  0  0
 MicOpt= -1 -1 -1 -1 -1 -1 -1 -1 -1 -1 -1 -1 -1 -1 -1 -1 -1 -1 -1 -1
 MicOpt= -1 -1 -1 -1 -1 -1 -1 -1 -1 -1 -1 -1 -1 -1
 NAtoms=     34 NQM=       34 NQMF=       0 NMMI=      0 NMMIF=      0
                NMic=       0 NMicF=      0.
                    Isotopes and Nuclear Properties:
 (Nuclear quadrupole moments (NQMom) in fm**2, nuclear magnetic moments (NMagM)
  in nuclear magnetons)

  Atom         1           2           3           4           5           6           7           8           9          10
 IAtWgt=          16          16          12           1          16          16          12           1          16          16
 AtmWgt=  15.9949146  15.9949146  12.0000000   1.0078250  15.9949146  15.9949146  12.0000000   1.0078250  15.9949146  15.9949146
 NucSpn=           0           0           0           1           0           0           0           1           0           0
 AtZEff=  -0.0000000  -0.0000000  -0.0000000  -0.0000000  -0.0000000  -0.0000000  -0.0000000  -0.0000000  -0.0000000  -0.0000000
 NQMom=    0.0000000   0.0000000   0.0000000   0.0000000   0.0000000   0.0000000   0.0000000   0.0000000   0.0000000   0.0000000
 NMagM=    0.0000000   0.0000000   0.0000000   2.7928460   0.0000000   0.0000000   0.0000000   2.7928460   0.0000000   0.0000000
 AtZNuc=   8.0000000   8.0000000   6.0000000   1.0000000   8.0000000   8.0000000   6.0000000   1.0000000   8.0000000   8.0000000

  Atom        11          12          13          14          15          16          17          18          19          20
 IAtWgt=          16          12           1          16          16          12           1          56          16          56
 AtmWgt=  15.9949146  12.0000000   1.0078250  15.9949146  15.9949146  12.0000000   1.0078250  55.9349393  15.9949146  55.9349393
 NucSpn=           0           0           1           0           0           0           1           0           0           0
 AtZEff=  -0.0000000  -0.0000000  -0.0000000  -0.0000000  -0.0000000  -0.0000000  -0.0000000  -0.0000000  -0.0000000  -0.0000000
 NQMom=    0.0000000   0.0000000   0.0000000   0.0000000   0.0000000   0.0000000   0.0000000   0.0000000   0.0000000   0.0000000
 NMagM=    0.0000000   0.0000000   2.7928460   0.0000000   0.0000000   0.0000000   2.7928460   0.0000000   0.0000000   0.0000000
 AtZNuc=   8.0000000   6.0000000   1.0000000   8.0000000   8.0000000   6.0000000   1.0000000  26.0000000   8.0000000  26.0000000

  Atom        21          22          23          24          25          26          27          28          29          30
 IAtWgt=          16          16          56          16          12           1          12           1          14          14
 AtmWgt=  15.9949146  15.9949146  55.9349393  15.9949146  12.0000000   1.0078250  12.0000000   1.0078250  14.0030740  14.0030740
 NucSpn=           0           0           0           0           0           1           0           1           2           2
 AtZEff=  -0.0000000  -0.0000000  -0.0000000  -0.0000000  -0.0000000  -0.0000000  -0.0000000  -0.0000000  -0.0000000  -0.0000000
 NQMom=    0.0000000   0.0000000   0.0000000   0.0000000   0.0000000   0.0000000   0.0000000   0.0000000   2.0440000   2.0440000
 NMagM=    0.0000000   0.0000000   0.0000000   0.0000000   0.0000000   2.7928460   0.0000000   2.7928460   0.4037610   0.4037610
 AtZNuc=   8.0000000   8.0000000  26.0000000   8.0000000   6.0000000   1.0000000   6.0000000   1.0000000   7.0000000   7.0000000

  Atom        31          32          33          34
 IAtWgt=          16          16           1           1
 AtmWgt=  15.9949146  15.9949146   1.0078250   1.0078250
 NucSpn=           0           0           1           1
 AtZEff=  -0.0000000  -0.0000000  -0.0000000  -0.0000000
 NQMom=    0.0000000   0.0000000   0.0000000   0.0000000
 NMagM=    0.0000000   0.0000000   2.7928460   2.7928460
 AtZNuc=   8.0000000   8.0000000   1.0000000   1.0000000
 Leave Link  101 at Mon Feb 20 11:37:59 2023, MaxMem= 14763950080 cpu:               0.1 elap:               1.5
 (Enter /software/commercial/gaussian/g16/AVX2/g16/l103.exe)

 GradGradGradGradGradGradGradGradGradGradGradGradGradGradGradGradGradGrad
 Berny optimization.
 Initialization pass.
 No Z-matrix variables, so optimization will use Cartesian coordinates.
 Trust Radius=3.00D-01 FncErr=1.00D-07 GrdErr=1.00D-06 EigMax=2.50D+02 EigMin=1.00D-04
 Number of steps in this run=    204 maximum allowed number of steps=    204.
 Search for a saddle point of order  1.
 GradGradGradGradGradGradGradGradGradGradGradGradGradGradGradGradGradGrad

 Leave Link  103 at Mon Feb 20 11:38:02 2023, MaxMem= 14763950080 cpu:               0.1 elap:               1.1
 (Enter /software/commercial/gaussian/g16/AVX2/g16/l202.exe)
 ---------------------------------------------------------------------------------------------------
                            Z-MATRIX (ANGSTROMS AND DEGREES)
   CD    Cent   Atom    N1       Length/X        N2       Alpha/Y        N3        Beta/Z          J
 ---------------------------------------------------------------------------------------------------
      1      1  O        0  -0.012840          0.013179          0.016107
      2      2  O        0  -0.010377          0.004742          2.266407
      3      3  C        0   0.535792          0.004686          1.149319
      4      4  H        0   1.639777          0.002217          1.137841
      5      5  O        0  -4.936410         -1.646260         -0.507241
      6      6  O        0  -3.887047          0.215666         -1.197033
      7      7  C        0  -4.881665         -0.530028         -1.076419
      8      8  H        0  -5.816163         -0.178743         -1.551157
      9      9  O        0  -1.382146         -2.213584          3.468764
     10     10  O        0  -1.725721         -1.637704         -1.600291
     11     11  O        0  -2.690848         -3.363046         -0.513854
     12     12  C        0  -2.009720         -2.847693         -1.427292
     13     13  H        0  -1.606473         -3.547136         -2.180928
     14     14  O        0  -2.474397          1.642851          2.466368
     15     15  O        0  -2.224499          1.909343          0.245832
     16     16  C        0  -2.483086          2.304728          1.414180
     17     17  H        0  -2.752440          3.372124          1.503206
     18     18  Fe       0  -1.905518         -0.258032          3.027468
     19     19  O        0  -3.833494         -0.614520          3.753548
     20     20  Fe       0  -3.675452         -2.413023          1.010854
     21     21  O        0  -5.117013         -1.842679          2.367666
     22     22  O        0  -2.798680         -3.576714          2.371984
     23     23  Fe       0  -1.970898         -0.002204         -0.378058
     24     24  O        0  -2.562271         -0.914023          1.158356
     25     25  C        0  -4.897450         -1.143796          3.396213
     26     26  H        0  -5.772952         -0.991597          4.053186
     27     27  C        0  -1.861260         -3.321912          3.174088
     28     28  H        0  -1.420076         -4.202374          3.673649
     29     29  N        0  -1.890395         -0.010455          5.941751
     30     30  N        0  -1.835485          0.070808          7.133531
     31     31  O        0  -1.383070          0.360317          4.779772
     32     32  O        0  -5.219959         -3.994282          0.779682
     33     33  H        0  -5.635034         -3.689862         -0.038880
     34     34  H        0  -5.815131         -3.681151          1.475168
 ---------------------------------------------------------------------------------------------------
                         Z-Matrix orientation:                         
 ---------------------------------------------------------------------
 Center     Atomic      Atomic             Coordinates (Angstroms)
 Number     Number       Type             X           Y           Z
 ---------------------------------------------------------------------
      1          8           0       -0.012840    0.013179    0.016107
      2          8           0       -0.010377    0.004742    2.266407
      3          6           0        0.535792    0.004686    1.149319
      4          1           0        1.639777    0.002217    1.137841
      5          8           0       -4.936410   -1.646260   -0.507241
      6          8           0       -3.887047    0.215666   -1.197033
      7          6           0       -4.881665   -0.530028   -1.076419
      8          1           0       -5.816163   -0.178743   -1.551157
      9          8           0       -1.382146   -2.213584    3.468764
     10          8           0       -1.725721   -1.637704   -1.600291
     11          8           0       -2.690848   -3.363046   -0.513854
     12          6           0       -2.009720   -2.847693   -1.427292
     13          1           0       -1.606473   -3.547136   -2.180928
     14          8           0       -2.474397    1.642851    2.466368
     15          8           0       -2.224499    1.909343    0.245832
     16          6           0       -2.483086    2.304728    1.414180
     17          1           0       -2.752440    3.372124    1.503206
     18         26           0       -1.905518   -0.258032    3.027468
     19          8           0       -3.833494   -0.614520    3.753548
     20         26           0       -3.675452   -2.413023    1.010854
     21          8           0       -5.117013   -1.842679    2.367666
     22          8           0       -2.798680   -3.576714    2.371984
     23         26           0       -1.970898   -0.002204   -0.378058
     24          8           0       -2.562271   -0.914023    1.158356
     25          6           0       -4.897450   -1.143796    3.396213
     26          1           0       -5.772952   -0.991597    4.053186
     27          6           0       -1.861260   -3.321912    3.174088
     28          1           0       -1.420076   -4.202374    3.673649
     29          7           0       -1.890395   -0.010455    5.941751
     30          7           0       -1.835485    0.070808    7.133531
     31          8           0       -1.383070    0.360317    4.779772
     32          8           0       -5.219959   -3.994282    0.779682
     33          1           0       -5.635034   -3.689862   -0.038880
     34          1           0       -5.815131   -3.681151    1.475168
 ---------------------------------------------------------------------
                    Distance matrix (angstroms):
                    1          2          3          4          5
     1  O    0.000000
     2  O    2.250317   0.000000
     3  C    1.259063   1.243457   0.000000
     4  H    1.997386   1.999169   1.104047   0.000000
     5  O    5.221989   5.889374   5.951034   6.976389   0.000000
     6  O    4.064750   5.202737   5.011126   6.003581   2.245828
     7  C    5.019377   5.932109   5.881213   6.907636   1.254167
     8  H    6.014292   6.950871   6.904603   7.928083   2.004328
     9  O    4.330625   2.872000   3.738855   4.413048   5.363139
    10  O    2.876129   4.537773   3.920745   4.638242   3.391660
    11  O    4.341829   5.124136   4.951663   5.727775   2.826649
    12  C    3.775648   5.077122   4.610273   5.293460   3.294761
    13  H    4.476882   5.911188   5.319331   5.843824   4.183663
    14  O    3.836518   2.965599   3.671436   4.624186   5.071697
    15  O    2.922267   3.551417   3.473214   4.400618   4.534743
    16  C    3.648002   3.482889   3.804467   4.730319   5.031994
    17  H    4.582508   4.409155   4.719888   5.548093   5.830592
    18  Fe   3.567083   2.059083   3.091352   4.025858   4.858771
    19  O    5.381437   4.148650   5.124069   6.097457   4.520535
    20  Fe   4.504520   4.566703   4.857887   5.839621   2.117204
    21  O    5.918329   5.431478   6.070530   7.111281   2.887263
    22  O    5.118437   4.540111   5.043812   5.833674   4.072650
    23  Fe   1.997397   3.291943   2.935374   3.915986   3.393209
    24  O    2.943473   2.929858   3.231424   4.300828   2.991140
    25  C    6.051704   5.145783   5.990631   7.010630   3.935853
    26  H    7.105383   6.114944   7.016073   8.027170   4.682508
    27  C    4.950993   3.913602   4.572942   5.239599   5.080998
    28  H    5.755764   4.654826   5.281763   5.785465   6.031431
    29  N    6.216030   4.128299   5.371594   5.961529   7.317347
    30  N    7.347318   5.198488   6.437245   6.930400   8.422913
    31  O    4.968958   2.885779   4.121734   4.746525   6.678704
    32  O    6.614898   6.733668   7.018336   7.947091   2.692541
    33  H    6.732355   7.113453   7.289760   8.242511   2.209920
    34  H    7.031608   6.921491   7.350224   8.322058   2.973698
                    6          7          8          9         10
     6  O    0.000000
     7  C    1.248948   0.000000
     8  H    2.000613   1.105470   0.000000
     9  O    5.826272   5.978268   7.000049   0.000000
    10  O    2.875574   3.385465   4.343121   5.113218   0.000000
    11  O    3.834684   3.625210   4.580762   4.346862   2.255797
    12  C    3.600214   3.707122   4.650553   4.976676   1.254854
    13  H    4.508630   4.588002   5.428091   5.809277   1.999322
    14  O    4.177672   4.802883   5.534086   4.131574   5.278283
    15  O    2.777493   3.841798   4.526513   5.300507   4.029701
    16  C    3.626806   4.471253   5.105904   5.084145   5.020300
    17  H    4.306025   5.139538   5.596802   6.077932   5.981991
    18  Fe   4.690123   5.076743   6.021897   2.071918   4.832388
    19  O    5.019993   4.943115   5.679857   2.940615   5.844074
    20  Fe   3.439410   3.058975   4.017282   3.367544   3.349724
    21  O    4.296124   3.693259   4.314472   3.911422   5.223750
    22  O    5.320204   5.051000   6.003536   2.251137   4.548623
    23  Fe   2.095188   3.039551   4.024101   4.476033   2.056411
    24  O    2.929008   3.243649   4.297663   2.901644   2.972148
    25  C    4.895606   4.514576   5.123654   3.675197   5.938759
    26  H    5.707795   5.226881   5.663149   4.594995   6.982788
    27  C    5.977037   5.914750   6.917276   1.242890   5.064546
    28  H    7.023430   6.930503   7.925515   1.999676   5.872427
    29  N    7.416198   7.646722   8.460712   3.350785   7.717348
    30  N    8.580687   8.777442   9.556771   4.342175   8.900040
    31  O    6.481745   6.879524   7.747487   2.888548   6.694378
    32  O    4.838152   3.944694   4.510721   5.013069   4.840189
    33  H    4.432824   3.410074   3.827237   5.707015   4.683170
    34  H    5.103268   4.160713   4.628769   5.077355   5.509755
                   11         12         13         14         15
    11  O    0.000000
    12  C    1.250557   0.000000
    13  H    1.997222   1.104444   0.000000
    14  O    5.829887   5.961669   7.020443   0.000000
    15  O    5.347213   5.047263   6.003689   2.250388   0.000000
    16  C    5.990337   5.903006   6.923696   1.243083   1.260251
    17  H    7.030991   6.915604   7.922262   1.998843   1.999860
    18  Fe   4.774811   5.153842   6.167254   2.061992   3.540729
    19  O    5.202956   5.929108   6.984115   2.932525   4.611163
    20  Fe   2.048591   2.984654   3.969176   4.473384   4.623134
    21  O    4.062136   5.006698   5.993227   4.375166   5.191000
    22  O    2.895746   3.948218   4.706510   5.230481   5.911601
    23  Fe   3.439771   3.033019   3.993706   3.324226   2.026713
    24  O    2.968254   3.275663   4.358630   2.873364   2.986333
    25  C    5.008272   5.874389   6.907320   3.808044   5.137239
    26  H    5.998416   6.902365   7.921774   4.509853   5.958432
    27  C    3.780321   4.628134   5.365803   5.052294   6.006052
    28  H    4.455840   5.310597   5.894078   6.061004   7.053376
    29  N    7.318157   7.897275   8.863782   3.892655   6.020028
    30  N    8.426476   9.046308   9.995054   4.966079   7.139464
    31  O    6.602741   7.015102   7.985577   2.861420   4.864576
    32  O    2.909999   4.060916   4.692806   6.493095   6.641578
    33  H    3.000107   3.972384   4.564871   6.686084   6.562310
    34  H    3.717330   4.857991   5.576540   6.363016   6.757035
                   16         17         18         19         20
    16  C    0.000000
    17  H    1.104451   0.000000
    18  Fe   3.082859   4.027243   0.000000
    19  O    3.977217   4.703833   2.090782   0.000000
    20  Fe   4.882784   5.878970   3.441422   3.283590   0.000000
    21  O    5.004767   5.790740   3.641448   2.253101   2.060177
    22  O    5.967273   7.003090   3.498721   3.428433   1.993886
    23  Fe   2.965871   3.941580   3.415747   4.573222   3.262917
    24  O    3.229872   4.304200   2.086918   2.905294   1.872947
    25  C    4.652948   5.345847   3.142007   1.240896   2.965494
    26  H    5.352880   5.887950   4.067832   1.998366   3.959260
    27  C    5.928155   6.956735   3.067705   3.399331   2.965966
    28  H    6.969761   7.991185   4.026293   4.324774   3.921604
    29  N    5.119595   5.646737   2.924819   2.988103   5.768233
    30  N    6.174201   6.590907   4.119805   3.985724   6.858722
    31  O    4.039552   4.656398   1.930253   2.829845   5.210679
    32  O    6.897144   7.802312   5.477009   4.710515   2.222459
    33  H    6.926851   7.781968   5.923617   5.204401   2.563634
    34  H    6.851058   7.689574   5.423325   4.303734   2.530210
                   21         22         23         24         25
    21  O    0.000000
    22  O    2.895093   0.000000
    23  Fe   4.563375   4.585311   0.000000
    24  O    2.975154   2.935763   1.881942   0.000000
    25  C    1.262757   3.372384   4.910505   3.242508   0.000000
    26  H    1.998893   4.284339   5.922030   4.323717   1.105116
    27  C    3.665839   1.259782   4.863149   3.217533   3.743258
    28  H    4.576144   1.996580   5.861840   4.294713   4.639397
    29  N    5.151911   5.127029   6.320327   4.914135   4.099586
    30  N    6.094533   6.074907   7.513164   6.099248   4.981811
    31  O    4.961227   4.827174   5.203861   4.016106   4.065398
    32  O    2.676133   2.927863   5.275741   4.085914   3.882720
    33  H    3.077644   3.724241   5.209583   4.310514   4.338934
    34  H    2.159607   3.148676   5.634468   4.282343   3.312208
                   26         27         28         29         30
    26  H    0.000000
    27  C    4.637296   0.000000
    28  H    5.422238   1.104273   0.000000
    29  N    4.427591   4.315849   4.789329   0.000000
    30  N    5.110859   5.214250   5.513931   1.195809   0.000000
    31  O    4.650448   4.045454   4.695000   1.321002   2.414265
    32  O    4.476354   4.179249   4.780947   7.321464   8.267467
    33  H    4.903535   4.969901   5.640161   7.957908   8.945540
    34  H    3.725810   4.318388   4.941811   6.987698   7.869679
                   31         32         33         34
    31  O    0.000000
    32  O    7.048757   0.000000
    33  H    7.596220   0.966955   0.000000
    34  H    6.848141   0.967461   1.524747   0.000000
 Symmetry turned off by external request.
 Stoichiometry    C6H8Fe3N2O15(15)
 Framework group  C1[X(C6H8Fe3N2O15)]
 Deg. of freedom    96
 Full point group                 C1      NOp   1
 Rotational constants (GHZ):           0.2316941           0.1661818           0.1327052
 Leave Link  202 at Mon Feb 20 11:38:03 2023, MaxMem= 14763950080 cpu:               0.1 elap:               0.7
 (Enter /software/commercial/gaussian/g16/AVX2/g16/l301.exe)
 General basis read from cards:  (5D, 7F)
 Centers:       4      8     13     17     26     28     33     34
 S 3 1.00
     Exponent=  3.4061341000D+01 Coefficients=  6.0251978000D-03
     Exponent=  5.1235746000D+00 Coefficients=  4.5021094000D-02
     Exponent=  1.1646626000D+00 Coefficients=  2.0189726000D-01
 S 1 1.00
     Exponent=  3.2723041000D-01 Coefficients=  1.0000000000D+00
 S 1 1.00
     Exponent=  1.0307241000D-01 Coefficients=  1.0000000000D+00
 P 1 1.00
     Exponent=  8.0000000000D-01 Coefficients=  1.0000000000D+00
 ****
 Centers:       1      2      5      6      9     10     11     14     15     19
 Centers:      21     22     24     31     32
 S 6 1.00
     Exponent=  2.7032382631D+04 Coefficients=  2.1726302465D-04
     Exponent=  4.0523871392D+03 Coefficients=  1.6838662199D-03
     Exponent=  9.2232722710D+02 Coefficients=  8.7395616265D-03
     Exponent=  2.6124070989D+02 Coefficients=  3.5239968808D-02
     Exponent=  8.5354641351D+01 Coefficients=  1.1153519115D-01
     Exponent=  3.1035035245D+01 Coefficients=  2.5588953961D-01
 S 2 1.00
     Exponent=  1.2260860728D+01 Coefficients=  3.9768730901D-01
     Exponent=  4.9987076005D+00 Coefficients=  2.4627849430D-01
 S 1 1.00
     Exponent=  1.1703108158D+00 Coefficients=  1.0000000000D+00
 S 1 1.00
     Exponent=  4.6474740994D-01 Coefficients=  1.0000000000D+00
 S 1 1.00
     Exponent=  1.8504536357D-01 Coefficients=  1.0000000000D+00
 P 4 1.00
     Exponent=  6.3274954801D+01 Coefficients=  6.0685103418D-03
     Exponent=  1.4627049379D+01 Coefficients=  4.1912575824D-02
     Exponent=  4.4501223456D+00 Coefficients=  1.6153841088D-01
     Exponent=  1.5275799647D+00 Coefficients=  3.5706951311D-01
 P 1 1.00
     Exponent=  5.2935117943D-01 Coefficients=  4.4794207502D-01
 P 1 1.00
     Exponent=  1.7478421270D-01 Coefficients=  2.4446069663D-01
 D 1 1.00
     Exponent=  2.3140000000D+00 Coefficients=  1.0000000000D+00
 D 1 1.00
     Exponent=  6.4500000000D-01 Coefficients=  1.0000000000D+00
 F 1 1.00
     Exponent=  1.4280000000D+00 Coefficients=  1.0000000000D+00
 ****
 Centers:       3      7     12     16     25     27
 S 6 1.00
     Exponent=  1.3575349682D+04 Coefficients=  2.2245814352D-04
     Exponent=  2.0352333680D+03 Coefficients=  1.7232738252D-03
     Exponent=  4.6322562359D+02 Coefficients=  8.9255715314D-03
     Exponent=  1.3120019598D+02 Coefficients=  3.5727984502D-02
     Exponent=  4.2853015891D+01 Coefficients=  1.1076259931D-01
     Exponent=  1.5584185766D+01 Coefficients=  2.4295627626D-01
 S 2 1.00
     Exponent=  6.2067138508D+00 Coefficients=  4.1440263448D-01
     Exponent=  2.5764896527D+00 Coefficients=  2.3744968655D-01
 S 1 1.00
     Exponent=  5.7696339419D-01 Coefficients=  1.0000000000D+00
 S 1 1.00
     Exponent=  2.2972831358D-01 Coefficients=  1.0000000000D+00
 S 1 1.00
     Exponent=  9.5164440028D-02 Coefficients=  1.0000000000D+00
 P 4 1.00
     Exponent=  3.4697232244D+01 Coefficients=  5.3333657805D-03
     Exponent=  7.9582622826D+00 Coefficients=  3.5864109092D-02
     Exponent=  2.3780826883D+00 Coefficients=  1.4215873329D-01
     Exponent=  8.1433208183D-01 Coefficients=  3.4270471845D-01
 P 1 1.00
     Exponent=  2.8887547253D-01 Coefficients=  4.6445822433D-01
 P 1 1.00
     Exponent=  1.0056823671D-01 Coefficients=  2.4955789874D-01
 D 1 1.00
     Exponent=  1.0970000000D+00 Coefficients=  1.0000000000D+00
 D 1 1.00
     Exponent=  3.1800000000D-01 Coefficients=  1.0000000000D+00
 F 1 1.00
     Exponent=  7.6100000000D-01 Coefficients=  1.0000000000D+00
 ****
 Centers:      18     20     23
 S 8 1.00
     Exponent=  3.0078484637D+05 Coefficients=  2.2806273096D-04
     Exponent=  4.5088970557D+04 Coefficients=  1.7681788761D-03
     Exponent=  1.0262516317D+04 Coefficients=  9.1927083490D-03
     Exponent=  2.9052897293D+03 Coefficients=  3.7355495807D-02
     Exponent=  9.4611487137D+02 Coefficients=  1.2151108426D-01
     Exponent=  3.3987832894D+02 Coefficients=  2.8818881468D-01
     Exponent=  1.3194425588D+02 Coefficients=  4.1126612677D-01
     Exponent=  5.2111494077D+01 Coefficients=  2.1518583573D-01
 S 4 1.00
     Exponent=  3.2948839267D+02 Coefficients= -2.4745216477D-02
     Exponent=  1.0192332739D+02 Coefficients= -1.1683089050D-01
     Exponent=  1.6240462745D+01 Coefficients=  5.5293621136D-01
     Exponent=  6.8840675801D+00 Coefficients=  5.3601640182D-01
 S 2 1.00
     Exponent=  1.0470693782D+01 Coefficients= -2.2912708577D-01
     Exponent=  1.7360039648D+00 Coefficients=  7.1159319984D-01
 S 1 1.00
     Exponent=  7.2577288979D-01 Coefficients=  1.0000000000D+00
 S 1 1.00
     Exponent=  1.1595528203D-01 Coefficients=  1.0000000000D+00
 S 1 1.00
     Exponent=  4.1968227746D-02 Coefficients=  1.0000000000D+00
 P 6 1.00
     Exponent=  1.5853959970D+03 Coefficients=  2.3793960179D-03
     Exponent=  3.7538006499D+02 Coefficients=  1.9253154755D-02
     Exponent=  1.2031816501D+02 Coefficients=  9.0021836536D-02
     Exponent=  4.4788749031D+01 Coefficients=  2.5798172356D-01
     Exponent=  1.7829278584D+01 Coefficients=  4.1492649744D-01
     Exponent=  7.2247153786D+00 Coefficients=  2.4207474784D-01
 P 3 1.00
     Exponent=  2.8143219756D+01 Coefficients= -2.9041755152D-02
     Exponent=  3.8743241412D+00 Coefficients=  5.5312260343D-01
     Exponent=  1.5410752281D+00 Coefficients=  9.6771136842D-01
 P 1 1.00
     Exponent=  5.8285615250D-01 Coefficients=  1.0000000000D+00
 P 1 1.00
     Exponent=  1.3491500000D-01 Coefficients=  1.0000000000D+00
 D 4 1.00
     Exponent=  6.1996675034D+01 Coefficients=  1.1971972255D-02
     Exponent=  1.7873732552D+01 Coefficients=  7.3210135410D-02
     Exponent=  6.2744782934D+00 Coefficients=  2.3103094314D-01
     Exponent=  2.3552337175D+00 Coefficients=  3.9910706494D-01
 D 1 1.00
     Exponent=  8.5432239901D-01 Coefficients=  4.1391589765D-01
 D 1 1.00
     Exponent=  2.7869254413D-01 Coefficients=  2.1909269782D-01
 D 1 1.00
     Exponent=  9.1000000000D-02 Coefficients=  1.0000000000D+00
 F 1 1.00
     Exponent=  1.5980000000D+00 Coefficients=  1.0000000000D+00
 ****
 Centers:      29     30
 S 6 1.00
     Exponent=  1.9730800647D+04 Coefficients=  2.1887984991D-04
     Exponent=  2.9578958745D+03 Coefficients=  1.6960708803D-03
     Exponent=  6.7322133595D+02 Coefficients=  8.7954603538D-03
     Exponent=  1.9068249494D+02 Coefficients=  3.5359382605D-02
     Exponent=  6.2295441898D+01 Coefficients=  1.1095789217D-01
     Exponent=  2.2654161182D+01 Coefficients=  2.4982972552D-01
 S 2 1.00
     Exponent=  8.9791477428D+00 Coefficients=  4.0623896148D-01
     Exponent=  3.6863002370D+00 Coefficients=  2.4338217176D-01
 S 1 1.00
     Exponent=  8.4660076805D-01 Coefficients=  1.0000000000D+00
 S 1 1.00
     Exponent=  3.3647133771D-01 Coefficients=  1.0000000000D+00
 S 1 1.00
     Exponent=  1.3647653675D-01 Coefficients=  1.0000000000D+00
 P 4 1.00
     Exponent=  4.9200380510D+01 Coefficients=  5.5552416751D-03
     Exponent=  1.1346790537D+01 Coefficients=  3.8052379723D-02
     Exponent=  3.4273972411D+00 Coefficients=  1.4953671029D-01
     Exponent=  1.1785525134D+00 Coefficients=  3.4949305230D-01
 P 1 1.00
     Exponent=  4.1642204972D-01 Coefficients=  4.5843153697D-01
 P 1 1.00
     Exponent=  1.4260826011D-01 Coefficients=  2.4428771672D-01
 D 1 1.00
     Exponent=  1.6540000000D+00 Coefficients=  1.0000000000D+00
 D 1 1.00
     Exponent=  4.6900000000D-01 Coefficients=  1.0000000000D+00
 F 1 1.00
     Exponent=  1.0930000000D+00 Coefficients=  1.0000000000D+00
 ****
 Ernie: Thresh=  0.10000D-02 Tol=  0.10000D-05 Strict=F.
   896 basis functions,  1543 primitive gaussians,  1032 cartesian basis functions
   135 alpha electrons      121 beta electrons
       nuclear repulsion energy      4721.1020027029 Hartrees.
 IExCor= 4134 DFT=T Ex+Corr=M06L ExCW=0 ScaHFX=  0.000000
 ScaDFX=  1.000000  1.000000  1.000000  1.000000 ScalE2=  1.000000  1.000000
 IRadAn=      5 IRanWt=     -1 IRanGd=            0 ICorTp=0 IEmpDi=  4
 NAtoms=   34 NActive=   34 NUniq=   34 SFac= 1.00D+00 NAtFMM=   60 NAOKFM=F Big=F
 Integral buffers will be    131072 words long.
 Raffenetti 2 integral format.
 Two-electron integral symmetry is turned off.
 Leave Link  301 at Mon Feb 20 11:38:07 2023, MaxMem= 14763950080 cpu:               0.1 elap:               1.9
 (Enter /software/commercial/gaussian/g16/AVX2/g16/l302.exe)
 NPDir=0 NMtPBC=     1 NCelOv=     1 NCel=       1 NClECP=     1 NCelD=      1
         NCelK=      1 NCelE2=     1 NClLst=     1 CellRange=     0.0.
 One-electron integrals computed using PRISM.
 NBasis=   896 RedAO= T EigKep=  3.31D-04  NBF=   896
 NBsUse=   896 1.00D-06 EigRej= -1.00D+00 NBFU=   896
 Precomputing XC quadrature grid using
 IXCGrd= 4 IRadAn=           5 IRanWt=          -1 IRanGd=           0 AccXCQ= 0.00D+00.
 Generated NRdTot=       0 NPtTot=           0 NUsed=           0 NTot=          32
 NSgBfM=  1007  1007  1007  1007  1007 MxSgAt=    34 MxSgA2=    34.
 Leave Link  302 at Mon Feb 20 11:38:12 2023, MaxMem= 14763950080 cpu:               2.7 elap:               3.7
 (Enter /software/commercial/gaussian/g16/AVX2/g16/l303.exe)
 DipDrv:  MaxL=1.
 Leave Link  303 at Mon Feb 20 11:38:14 2023, MaxMem= 14763950080 cpu:               0.2 elap:               1.2
 (Enter /software/commercial/gaussian/g16/AVX2/g16/l401.exe)
 ExpMin= 4.20D-02 ExpMax= 3.01D+05 ExpMxC= 2.91D+03 IAcc=3 IRadAn=         5 AccDes= 0.00D+00
 Harris functional with IExCor= 1009 and IRadAn=       5 diagonalized for initial guess.
 HarFok:  IExCor= 1009 AccDes= 0.00D+00 IRadAn=         5 IDoV= 1 UseB2=F ITyADJ=14
 ICtDFT=  3500011 ScaDFX=  1.000000  1.000000  1.000000  1.000000
 FoFCou: FMM=F IPFlag=           0 FMFlag=      100000 FMFlg1=           0
         NFxFlg=           0 DoJE=T BraDBF=F KetDBF=T FulRan=T
         wScrn=  0.000000 ICntrl=       500 IOpCl=  0 I1Cent=   200000004 NGrid=           0
         NMat0=    1 NMatS0=      1 NMatT0=    0 NMatD0=    1 NMtDS0=    0 NMtDT0=    0
 Symmetry not used in FoFCou.
 Harris En= -5260.90191362827    
 JPrj=0 DoOrth=F DoCkMO=F.
 Initial guess <Sx>= 0.0000 <Sy>= 0.0000 <Sz>= 7.0000 <S**2>=56.0000 S= 7.0000
 Leave Link  401 at Mon Feb 20 11:38:34 2023, MaxMem= 14763950080 cpu:              30.8 elap:              19.0
 (Enter /software/commercial/gaussian/g16/AVX2/g16/l502.exe)
 Two-electron integral symmetry not used.
 UHF open shell SCF:
 Using DIIS extrapolation, IDIIS=  1040.
 NGot= 14763950080 LenX= 14761806542 LenY= 14760740486
 Requested convergence on RMS density matrix=1.00D-08 within 150 cycles.
 Requested convergence on MAX density matrix=1.00D-06.
 Requested convergence on             energy=1.00D-06.
 No special actions if energy rises.
 Fock matrices will be formed incrementally for  20 cycles.

 Cycle   1  Pass 1  IDiag  1:
 FoFJK:  IHMeth= 1 ICntrl=     500 DoSepK=F KAlg= 0 I1Cent=           0 FoldK=F
 IRaf= 760000000 NMat=       1 IRICut=       1 DoRegI=T DoRafI=F ISym2E= 0 IDoP0=0 IntGTp=1.
 FoFCou: FMM=F IPFlag=           0 FMFlag=      100000 FMFlg1=           0
         NFxFlg=           0 DoJE=T BraDBF=F KetDBF=F FulRan=T
         wScrn=  0.000000 ICntrl=       500 IOpCl=  0 I1Cent=           0 NGrid=           0
         NMat0=    1 NMatS0=      1 NMatT0=    0 NMatD0=    1 NMtDS0=    0 NMtDT0=    0
 Symmetry not used in FoFCou.
 E= -5262.10858732505    
 DIIS: error= 4.10D-02 at cycle   1 NSaved=   1.
 NSaved= 1 IEnMin= 1 EnMin= -5262.10858732505     IErMin= 1 ErrMin= 4.10D-02
 ErrMax= 4.10D-02  0.00D+00 EMaxC= 1.00D-01 BMatC= 8.83D+00 BMatP= 8.83D+00
 IDIUse=3 WtCom= 5.90D-01 WtEn= 4.10D-01
 Coeff-Com:  0.100D+01
 Coeff-En:   0.100D+01
 Coeff:      0.100D+01
 Gap=     0.089 Goal=   None    Shift=    0.000
 Gap=    -0.003 Goal=   None    Shift=    0.000
 GapD=   -0.003 DampG=0.250 DampE=0.250 DampFc=0.1250 IDamp=-1.
 Damping current iteration by 1.25D-01
 RMSDP=3.43D-03 MaxDP=5.27D-01              OVMax= 9.42D-01

 Cycle   2  Pass 1  IDiag  1:
 RMSU=  4.27D-04    CP:  9.96D-01
 E= -5262.31761023407     Delta-E=       -0.209022909021 Rises=F Damp=T
 DIIS: error= 1.63D-02 at cycle   2 NSaved=   2.
 NSaved= 2 IEnMin= 2 EnMin= -5262.31761023407     IErMin= 2 ErrMin= 1.63D-02
 ErrMax= 1.63D-02  0.00D+00 EMaxC= 1.00D-01 BMatC= 2.23D+00 BMatP= 8.83D+00
 IDIUse=3 WtCom= 8.37D-01 WtEn= 1.63D-01
 Coeff-Com: -0.361D+00 0.136D+01
 Coeff-En:   0.317D+00 0.683D+00
 Coeff:     -0.250D+00 0.125D+01
 Gap=     0.006 Goal=   None    Shift=    0.000
 Gap=     0.001 Goal=   None    Shift=    0.000
 RMSDP=1.92D-03 MaxDP=2.46D-01 DE=-2.09D-01 OVMax= 9.87D-01

 Cycle   3  Pass 1  IDiag  1:
 RMSU=  1.91D-03    CP:  9.86D-01  8.86D-01
 E= -5258.34468137018     Delta-E=        3.972928863888 Rises=F Damp=F
 DIIS: error= 6.88D-02 at cycle   3 NSaved=   3.
 NSaved= 3 IEnMin= 2 EnMin= -5262.31761023407     IErMin= 2 ErrMin= 1.63D-02
 ErrMax= 6.88D-02  0.00D+00 EMaxC= 1.00D-01 BMatC= 1.93D+01 BMatP= 2.23D+00
 IDIUse=2 WtCom= 0.00D+00 WtEn= 1.00D+00
 EnCoef did    10 forward-backward iterations
 Coeff-En:   0.233D+00 0.714D+00 0.529D-01
 Coeff:      0.233D+00 0.714D+00 0.529D-01
 Gap=    -0.317 Goal=   None    Shift=    0.000
 Gap=    -0.012 Goal=   None    Shift=    0.000
 RMSDP=2.18D-03 MaxDP=3.10D-01 DE= 3.97D+00 OVMax= 6.62D-01

 Cycle   4  Pass 1  IDiag  1:
 RMSU=  1.30D-03    CP:  9.93D-01  2.90D+00  2.02D-01
 E= -5258.52126840535     Delta-E=       -0.176587035170 Rises=F Damp=F
 DIIS: error= 1.26D-01 at cycle   4 NSaved=   4.
 NSaved= 4 IEnMin= 2 EnMin= -5262.31761023407     IErMin= 2 ErrMin= 1.63D-02
 ErrMax= 1.26D-01  0.00D+00 EMaxC= 1.00D-01 BMatC= 3.29D+01 BMatP= 2.23D+00
 IDIUse=2 WtCom= 0.00D+00 WtEn= 1.00D+00
 EnCoef did   100 forward-backward iterations
 Coeff-En:   0.608D+00 0.275D-01 0.954D-01 0.269D+00
 Coeff:      0.608D+00 0.275D-01 0.954D-01 0.269D+00
 Gap=    -0.069 Goal=   None    Shift=    0.000
 Gap=     0.004 Goal=   None    Shift=    0.000
 RMSDP=2.11D-03 MaxDP=3.07D-01 DE=-1.77D-01 OVMax= 9.21D-01

 Cycle   5  Pass 1  IDiag  1:
 RMSU=  1.58D-03    CP:  9.84D-01  2.87D+00  3.32D-01 -5.02D-02
 E= -5255.17711964968     Delta-E=        3.344148755667 Rises=F Damp=F
 DIIS: error= 1.74D-01 at cycle   5 NSaved=   5.
 NSaved= 5 IEnMin= 2 EnMin= -5262.31761023407     IErMin= 2 ErrMin= 1.63D-02
 ErrMax= 1.74D-01  0.00D+00 EMaxC= 1.00D-01 BMatC= 4.21D+01 BMatP= 2.23D+00
 IDIUse=2 WtCom= 0.00D+00 WtEn= 1.00D+00
 EnCoef did   100 forward-backward iterations
 Coeff-En:   0.615D+00 0.106D-01 0.397D-01 0.252D+00 0.830D-01
 Coeff:      0.615D+00 0.106D-01 0.397D-01 0.252D+00 0.830D-01
 Gap=     0.032 Goal=   None    Shift=    0.000
 Gap=    -0.003 Goal=   None    Shift=    0.000
 RMSDP=1.81D-03 MaxDP=3.14D-01 DE= 3.34D+00 OVMax= 9.84D-01

 Cycle   6  Pass 1  IDiag  1:
 RMSU=  8.44D-04    CP:  9.97D-01  1.37D+00  2.64D-01  2.99D-01  1.30D-01
 E= -5262.58724075900     Delta-E=       -7.410121109315 Rises=F Damp=F
 DIIS: error= 2.89D-02 at cycle   6 NSaved=   6.
 NSaved= 6 IEnMin= 6 EnMin= -5262.58724075900     IErMin= 2 ErrMin= 1.63D-02
 ErrMax= 2.89D-02  0.00D+00 EMaxC= 1.00D-01 BMatC= 3.38D+00 BMatP= 2.23D+00
 IDIUse=2 WtCom= 0.00D+00 WtEn= 1.00D+00
 EnCoef did   100 forward-backward iterations
 Coeff-En:   0.383D+00 0.650D-02 0.000D+00 0.134D+00 0.312D-01 0.446D+00
 Coeff:      0.383D+00 0.650D-02 0.000D+00 0.134D+00 0.312D-01 0.446D+00
 Gap=     0.056 Goal=   None    Shift=    0.000
 Gap=     0.005 Goal=   None    Shift=    0.000
 RMSDP=2.23D-03 MaxDP=3.34D-01 DE=-7.41D+00 OVMax= 9.80D-01

 Cycle   7  Pass 1  IDiag  1:
 RMSU=  1.68D-03    CP:  9.81D-01  3.00D+00  7.99D-02  2.64D-01  4.30D-01
                    CP: -3.08D-01
 E= -5248.74463965951     Delta-E=       13.842601099488 Rises=F Damp=F
 DIIS: error= 2.03D-01 at cycle   7 NSaved=   7.
 NSaved= 7 IEnMin= 6 EnMin= -5262.58724075900     IErMin= 2 ErrMin= 1.63D-02
 ErrMax= 2.03D-01  0.00D+00 EMaxC= 1.00D-01 BMatC= 7.01D+01 BMatP= 2.23D+00
 IDIUse=2 WtCom= 0.00D+00 WtEn= 1.00D+00
 EnCoef did     3 forward-backward iterations
 Coeff-En:   0.175D+00 0.000D+00 0.000D+00 0.000D+00 0.000D+00 0.718D+00
 Coeff-En:   0.107D+00
 Coeff:      0.175D+00 0.000D+00 0.000D+00 0.000D+00 0.000D+00 0.718D+00
 Coeff:      0.107D+00
 Gap=     0.002 Goal=   None    Shift=    0.000
 Gap=     0.004 Goal=   None    Shift=    0.000
 RMSDP=1.85D-03 MaxDP=2.81D-01 DE= 1.38D+01 OVMax= 9.81D-01

 Cycle   8  Pass 1  IDiag  1:
 RMSU=  9.95D-04    CP:  9.97D-01  1.62D+00  1.44D-01  5.59D-01  3.90D-02
                    CP: -9.32D-02  2.89D-01
 E= -5258.81020722142     Delta-E=      -10.065567561909 Rises=F Damp=F
 DIIS: error= 1.58D-01 at cycle   8 NSaved=   8.
 NSaved= 8 IEnMin= 6 EnMin= -5262.58724075900     IErMin= 2 ErrMin= 1.63D-02
 ErrMax= 1.58D-01  0.00D+00 EMaxC= 1.00D-01 BMatC= 2.77D+01 BMatP= 2.23D+00
 IDIUse=2 WtCom= 0.00D+00 WtEn= 1.00D+00
 EnCoef did    16 forward-backward iterations
 Coeff-En:   0.114D+00 0.000D+00 0.000D+00 0.000D+00 0.122D-02 0.700D+00
 Coeff-En:   0.554D-01 0.129D+00
 Coeff:      0.114D+00 0.000D+00 0.000D+00 0.000D+00 0.122D-02 0.700D+00
 Coeff:      0.554D-01 0.129D+00
 Gap=    -0.057 Goal=   None    Shift=    0.000
 Gap=     0.006 Goal=   None    Shift=    0.000
 RMSDP=1.58D-03 MaxDP=3.30D-01 DE=-1.01D+01 OVMax= 9.89D-01

 Cycle   9  Pass 1  IDiag  1:
 RMSU=  9.60D-04    CP:  9.93D-01  1.52D+00  1.71D-01  1.50D-01  4.44D-01
                    CP:  2.52D-01  3.75D-01  1.19D-01
 E= -5260.42246079785     Delta-E=       -1.612253576433 Rises=F Damp=F
 DIIS: error= 7.88D-02 at cycle   9 NSaved=   9.
 NSaved= 9 IEnMin= 6 EnMin= -5262.58724075900     IErMin= 2 ErrMin= 1.63D-02
 ErrMax= 7.88D-02  0.00D+00 EMaxC= 1.00D-01 BMatC= 1.55D+01 BMatP= 2.23D+00
 IDIUse=2 WtCom= 0.00D+00 WtEn= 1.00D+00
 EnCoef did     1 forward-backward iterations
 Coeff-En:   0.000D+00 0.000D+00 0.000D+00 0.000D+00 0.000D+00 0.660D+00
 Coeff-En:   0.000D+00 0.161D+00 0.179D+00
 Coeff:      0.000D+00 0.000D+00 0.000D+00 0.000D+00 0.000D+00 0.660D+00
 Coeff:      0.000D+00 0.161D+00 0.179D+00
 Gap=     0.036 Goal=   None    Shift=    0.000
 Gap=     0.115 Goal=   None    Shift=    0.000
 RMSDP=9.91D-04 MaxDP=2.68D-01 DE=-1.61D+00 OVMax= 9.97D-01

 Cycle  10  Pass 1  IDiag  1:
 RMSU=  7.73D-04    CP:  9.94D-01  1.30D+00  1.82D-01  3.19D-01  2.22D-01
                    CP:  3.90D-01  3.40D-01  2.82D-01  5.82D-01
 E= -5262.08559066711     Delta-E=       -1.663129869252 Rises=F Damp=F
 DIIS: error= 4.00D-02 at cycle  10 NSaved=  10.
 NSaved=10 IEnMin= 6 EnMin= -5262.58724075900     IErMin= 2 ErrMin= 1.63D-02
 ErrMax= 4.00D-02  0.00D+00 EMaxC= 1.00D-01 BMatC= 4.97D+00 BMatP= 2.23D+00
 IDIUse=2 WtCom= 0.00D+00 WtEn= 1.00D+00
 EnCoef did   100 forward-backward iterations
 Coeff-En:   0.000D+00 0.000D+00 0.000D+00 0.414D-02 0.000D+00 0.595D+00
 Coeff-En:   0.000D+00 0.794D-01 0.109D+00 0.212D+00
 Coeff:      0.000D+00 0.000D+00 0.000D+00 0.414D-02 0.000D+00 0.595D+00
 Coeff:      0.000D+00 0.794D-01 0.109D+00 0.212D+00
 Gap=    -0.136 Goal=   None    Shift=    0.000
 Gap=     0.002 Goal=   None    Shift=    0.000
 RMSDP=1.23D-03 MaxDP=2.47D-01 DE=-1.66D+00 OVMax= 9.83D-01

 Cycle  11  Pass 1  IDiag  1:
 RMSU=  5.92D-04    CP:  1.00D+00  1.30D+00  1.81D-01  3.36D-01  2.23D-01
                    CP:  2.01D-01  9.09D-02  3.47D-01  4.22D-01 -2.55D-01
 E= -5262.53617444163     Delta-E=       -0.450583774526 Rises=F Damp=F
 DIIS: error= 4.14D-02 at cycle  11 NSaved=  11.
 NSaved=11 IEnMin= 6 EnMin= -5262.58724075900     IErMin= 2 ErrMin= 1.63D-02
 ErrMax= 4.14D-02  0.00D+00 EMaxC= 1.00D-01 BMatC= 3.61D+00 BMatP= 2.23D+00
 IDIUse=2 WtCom= 0.00D+00 WtEn= 1.00D+00
 EnCoef did     3 forward-backward iterations
 Coeff-En:   0.000D+00 0.000D+00 0.000D+00 0.000D+00 0.000D+00 0.439D+00
 Coeff-En:   0.000D+00 0.533D-03 0.000D+00 0.277D+00 0.283D+00
 Coeff:      0.000D+00 0.000D+00 0.000D+00 0.000D+00 0.000D+00 0.439D+00
 Coeff:      0.000D+00 0.533D-03 0.000D+00 0.277D+00 0.283D+00
 Gap=     0.082 Goal=   None    Shift=    0.000
 Gap=     0.008 Goal=   None    Shift=    0.000
 RMSDP=8.23D-04 MaxDP=2.42D-01 DE=-4.51D-01 OVMax= 9.85D-01

 Cycle  12  Pass 1  IDiag  1:
 RMSU=  3.61D-04    CP:  9.98D-01  1.41D+00  1.95D-01  5.30D-01  7.99D-02
                    CP:  2.99D-01  8.59D-02  4.11D-01  1.01D-01  4.16D-01
                    CP:  6.09D-01
 E= -5262.68796967495     Delta-E=       -0.151795233322 Rises=F Damp=F
 DIIS: error= 4.28D-02 at cycle  12 NSaved=  12.
 NSaved=12 IEnMin=12 EnMin= -5262.68796967495     IErMin= 2 ErrMin= 1.63D-02
 ErrMax= 4.28D-02  0.00D+00 EMaxC= 1.00D-01 BMatC= 3.26D+00 BMatP= 2.23D+00
 IDIUse=2 WtCom= 0.00D+00 WtEn= 1.00D+00
 EnCoef did   100 forward-backward iterations
 Coeff-En:   0.000D+00 0.000D+00 0.000D+00 0.000D+00 0.000D+00 0.388D+00
 Coeff-En:   0.000D+00 0.000D+00 0.409D-02 0.181D+00 0.247D+00 0.180D+00
 Coeff:      0.000D+00 0.000D+00 0.000D+00 0.000D+00 0.000D+00 0.388D+00
 Coeff:      0.000D+00 0.000D+00 0.409D-02 0.181D+00 0.247D+00 0.180D+00
 Gap=     0.036 Goal=   None    Shift=    0.000
 Gap=     0.011 Goal=   None    Shift=    0.000
 RMSDP=8.21D-04 MaxDP=1.48D-01 DE=-1.52D-01 OVMax= 8.21D-01

 Cycle  13  Pass 1  IDiag  1:
 RMSU=  6.44D-04    CP:  9.98D-01  1.29D+00  2.19D-01  3.22D-01  2.49D-01
                    CP:  3.86D-01 -9.75D-03  3.20D-01  1.24D-01  3.19D-01
                    CP:  4.96D-01  3.20D-01
 E= -5263.09823452005     Delta-E=       -0.410264845101 Rises=F Damp=F
 DIIS: error= 1.36D-02 at cycle  13 NSaved=  13.
 NSaved=13 IEnMin=13 EnMin= -5263.09823452005     IErMin=13 ErrMin= 1.36D-02
 ErrMax= 1.36D-02  0.00D+00 EMaxC= 1.00D-01 BMatC= 6.51D-01 BMatP= 2.23D+00
 IDIUse=3 WtCom= 8.64D-01 WtEn= 1.36D-01
 EnCoef did     5 forward-backward iterations
 Coeff-Com: -0.119D+00 0.156D+00 0.155D-01 0.899D-03-0.214D-01 0.130D+00
 Coeff-Com: -0.254D-02-0.218D-01-0.306D-01 0.439D-01 0.232D+00 0.141D+00
 Coeff-Com:  0.476D+00
 Coeff-En:   0.000D+00 0.000D+00 0.000D+00 0.000D+00 0.000D+00 0.146D+00
 Coeff-En:   0.000D+00 0.000D+00 0.000D+00 0.000D+00 0.164D+00 0.207D+00
 Coeff-En:   0.483D+00
 Coeff:     -0.102D+00 0.134D+00 0.134D-01 0.776D-03-0.185D-01 0.132D+00
 Coeff:     -0.219D-02-0.188D-01-0.265D-01 0.379D-01 0.222D+00 0.150D+00
 Coeff:      0.477D+00
 Gap=     0.107 Goal=   None    Shift=    0.000
 Gap=    -0.017 Goal=   None    Shift=    0.000
 RMSDP=7.54D-04 MaxDP=1.15D-01 DE=-4.10D-01 OVMax= 8.83D-01

 Cycle  14  Pass 1  IDiag  1:
 RMSU=  3.78D-04    CP:  1.00D+00  1.20D+00  2.02D-01  3.94D-01  1.12D-01
                    CP:  4.10D-01  3.47D-02  2.30D-01  1.73D-01  7.30D-02
                    CP:  5.91D-01  3.58D-01  1.33D-01
 E= -5263.18528465200     Delta-E=       -0.087050131944 Rises=F Damp=F
 DIIS: error= 6.20D-03 at cycle  14 NSaved=  14.
 NSaved=14 IEnMin=14 EnMin= -5263.18528465200     IErMin=14 ErrMin= 6.20D-03
 ErrMax= 6.20D-03  0.00D+00 EMaxC= 1.00D-01 BMatC= 1.42D-01 BMatP= 6.51D-01
 IDIUse=3 WtCom= 9.38D-01 WtEn= 6.20D-02
 Coeff-Com: -0.906D-01 0.106D+00 0.855D-02-0.314D-02-0.364D-02-0.898D-03
 Coeff-Com: -0.142D-03-0.795D-02 0.554D-02 0.347D-03 0.254D-01 0.581D-01
 Coeff-Com:  0.373D+00 0.529D+00
 Coeff-En:   0.000D+00 0.000D+00 0.000D+00 0.000D+00 0.000D+00 0.000D+00
 Coeff-En:   0.000D+00 0.000D+00 0.000D+00 0.000D+00 0.000D+00 0.000D+00
 Coeff-En:   0.351D+00 0.649D+00
 Coeff:     -0.850D-01 0.992D-01 0.802D-02-0.294D-02-0.342D-02-0.842D-03
 Coeff:     -0.134D-03-0.746D-02 0.519D-02 0.326D-03 0.239D-01 0.545D-01
 Coeff:      0.372D+00 0.537D+00
 Gap=     0.070 Goal=   None    Shift=    0.000
 Gap=     0.005 Goal=   None    Shift=    0.000
 RMSDP=5.70D-04 MaxDP=1.04D-01 DE=-8.71D-02 OVMax= 7.38D-01

 Cycle  15  Pass 1  IDiag  1:
 RMSU=  1.95D-04    CP:  9.98D-01  1.35D+00  2.14D-01  4.08D-01  1.96D-01
                    CP:  3.55D-01  1.85D-02  3.18D-01  1.43D-01  3.46D-01
                    CP:  5.78D-01  5.16D-01  6.97D-01  2.84D-01
 E= -5263.20788969602     Delta-E=       -0.022605044021 Rises=F Damp=F
 DIIS: error= 6.02D-03 at cycle  15 NSaved=  15.
 NSaved=15 IEnMin=15 EnMin= -5263.20788969602     IErMin=15 ErrMin= 6.02D-03
 ErrMax= 6.02D-03  0.00D+00 EMaxC= 1.00D-01 BMatC= 1.29D-01 BMatP= 1.42D-01
 IDIUse=3 WtCom= 9.40D-01 WtEn= 6.02D-02
 EnCoef did    15 forward-backward iterations
 Coeff-Com: -0.399D-01 0.542D-01 0.265D-02 0.301D-02-0.258D-03-0.180D-02
 Coeff-Com: -0.610D-03-0.623D-02 0.517D-02-0.852D-02 0.885D-03-0.250D-01
 Coeff-Com:  0.143D+00 0.465D+00 0.408D+00
 Coeff-En:   0.000D+00 0.000D+00 0.000D+00 0.000D+00 0.000D+00 0.000D+00
 Coeff-En:   0.000D+00 0.000D+00 0.000D+00 0.000D+00 0.000D+00 0.000D+00
 Coeff-En:   0.109D+00 0.443D+00 0.448D+00
 Coeff:     -0.375D-01 0.510D-01 0.249D-02 0.283D-02-0.243D-03-0.170D-02
 Coeff:     -0.574D-03-0.585D-02 0.486D-02-0.801D-02 0.831D-03-0.235D-01
 Coeff:      0.141D+00 0.464D+00 0.410D+00
 Gap=     0.070 Goal=   None    Shift=    0.000
 Gap=     0.011 Goal=   None    Shift=    0.000
 RMSDP=1.83D-04 MaxDP=3.23D-02 DE=-2.26D-02 OVMax= 1.97D-01

 Cycle  16  Pass 1  IDiag  1:
 RMSU=  1.04D-04    CP:  9.98D-01  1.39D+00  2.16D-01  3.81D-01  2.24D-01
                    CP:  3.62D-01 -9.04D-03  3.12D-01  1.50D-01  3.15D-01
                    CP:  5.81D-01  4.11D-01  8.47D-01  2.66D-01  6.22D-01
 E= -5263.20616942314     Delta-E=        0.001720272878 Rises=F Damp=F
 DIIS: error= 4.57D-03 at cycle  16 NSaved=  16.
 NSaved=16 IEnMin=15 EnMin= -5263.20788969602     IErMin=16 ErrMin= 4.57D-03
 ErrMax= 4.57D-03  0.00D+00 EMaxC= 1.00D-01 BMatC= 9.49D-02 BMatP= 1.29D-01
 IDIUse=3 WtCom= 9.54D-01 WtEn= 4.57D-02
 EnCoef did     4 forward-backward iterations
 Coeff-Com: -0.109D-02 0.890D-02-0.102D-02 0.272D-02 0.141D-02 0.801D-02
 Coeff-Com:  0.545D-03-0.227D-02-0.332D-02-0.321D-02 0.107D-01-0.452D-01
 Coeff-Com: -0.621D-01 0.357D+00 0.400D+00 0.329D+00
 Coeff-En:   0.000D+00 0.000D+00 0.000D+00 0.000D+00 0.000D+00 0.000D+00
 Coeff-En:   0.000D+00 0.000D+00 0.000D+00 0.000D+00 0.000D+00 0.000D+00
 Coeff-En:   0.000D+00 0.384D+00 0.220D+00 0.396D+00
 Coeff:     -0.104D-02 0.850D-02-0.976D-03 0.260D-02 0.134D-02 0.765D-02
 Coeff:      0.521D-03-0.217D-02-0.317D-02-0.306D-02 0.102D-01-0.431D-01
 Coeff:     -0.593D-01 0.358D+00 0.392D+00 0.332D+00
 Gap=     0.084 Goal=   None    Shift=    0.000
 Gap=     0.005 Goal=   None    Shift=    0.000
 RMSDP=2.53D-04 MaxDP=2.99D-02 DE= 1.72D-03 OVMax= 3.05D-01

 Cycle  17  Pass 1  IDiag  1:
 RMSU=  1.03D-04    CP:  9.99D-01  1.32D+00  2.09D-01  3.96D-01  1.86D-01
                    CP:  3.74D-01  9.16D-03  2.77D-01  1.56D-01  2.66D-01
                    CP:  5.93D-01  4.52D-01  6.18D-01  6.15D-01  8.93D-01
                    CP:  5.65D-01
 E= -5263.23256308039     Delta-E=       -0.026393657252 Rises=F Damp=F
 DIIS: error= 1.61D-03 at cycle  17 NSaved=  17.
 NSaved=17 IEnMin=17 EnMin= -5263.23256308039     IErMin=17 ErrMin= 1.61D-03
 ErrMax= 1.61D-03  0.00D+00 EMaxC= 1.00D-01 BMatC= 7.24D-03 BMatP= 9.49D-02
 IDIUse=3 WtCom= 9.84D-01 WtEn= 1.61D-02
 Coeff-Com:  0.128D-01-0.117D-01 0.110D-02 0.104D-02-0.262D-03 0.420D-02
 Coeff-Com: -0.459D-03 0.516D-03 0.309D-02-0.758D-02 0.103D-02-0.141D-01
 Coeff-Com: -0.120D+00 0.157D+00 0.150D+00 0.285D+00 0.538D+00
 Coeff-En:   0.000D+00 0.000D+00 0.000D+00 0.000D+00 0.000D+00 0.000D+00
 Coeff-En:   0.000D+00 0.000D+00 0.000D+00 0.000D+00 0.000D+00 0.000D+00
 Coeff-En:   0.000D+00 0.718D-01 0.000D+00 0.000D+00 0.928D+00
 Coeff:      0.126D-01-0.115D-01 0.108D-02 0.102D-02-0.258D-03 0.413D-02
 Coeff:     -0.452D-03 0.508D-03 0.304D-02-0.746D-02 0.101D-02-0.139D-01
 Coeff:     -0.118D+00 0.156D+00 0.148D+00 0.280D+00 0.544D+00
 Gap=     0.084 Goal=   None    Shift=    0.000
 Gap=     0.008 Goal=   None    Shift=    0.000
 RMSDP=6.39D-05 MaxDP=6.71D-03 DE=-2.64D-02 OVMax= 7.35D-02

 Cycle  18  Pass 1  IDiag  1:
 RMSU=  3.30D-05    CP:  9.99D-01  1.35D+00  2.10D-01  4.06D-01  1.88D-01
                    CP:  3.67D-01  8.21D-03  2.89D-01  1.56D-01  2.90D-01
                    CP:  5.94D-01  4.74D-01  6.39D-01  5.43D-01  9.51D-01
                    CP:  7.10D-01  7.29D-01
 E= -5263.23268308362     Delta-E=       -0.000120003227 Rises=F Damp=F
 DIIS: error= 1.09D-03 at cycle  18 NSaved=  18.
 NSaved=18 IEnMin=18 EnMin= -5263.23268308362     IErMin=18 ErrMin= 1.09D-03
 ErrMax= 1.09D-03  0.00D+00 EMaxC= 1.00D-01 BMatC= 5.70D-03 BMatP= 7.24D-03
 IDIUse=3 WtCom= 9.89D-01 WtEn= 1.09D-02
 EnCoef did     2 forward-backward iterations
 Coeff-Com:  0.913D-02-0.984D-02 0.167D-02-0.324D-03-0.118D-02 0.223D-02
 Coeff-Com: -0.130D-04 0.513D-03 0.486D-02-0.948D-02-0.110D-02-0.205D-02
 Coeff-Com: -0.512D-01 0.708D-01-0.194D-01 0.787D-01 0.425D+00 0.502D+00
 Coeff-En:   0.000D+00 0.000D+00 0.000D+00 0.000D+00 0.000D+00 0.000D+00
 Coeff-En:   0.000D+00 0.000D+00 0.000D+00 0.000D+00 0.000D+00 0.000D+00
 Coeff-En:   0.000D+00 0.644D-01 0.000D+00 0.000D+00 0.432D+00 0.504D+00
 Coeff:      0.903D-02-0.974D-02 0.165D-02-0.321D-03-0.116D-02 0.220D-02
 Coeff:     -0.128D-04 0.508D-03 0.481D-02-0.937D-02-0.109D-02-0.203D-02
 Coeff:     -0.506D-01 0.708D-01-0.192D-01 0.778D-01 0.425D+00 0.502D+00
 Gap=     0.086 Goal=   None    Shift=    0.000
 Gap=     0.008 Goal=   None    Shift=    0.000
 RMSDP=4.69D-05 MaxDP=7.56D-03 DE=-1.20D-04 OVMax= 5.65D-02

 Cycle  19  Pass 1  IDiag  1:
 RMSU=  2.06D-05    CP:  9.99D-01  1.34D+00  2.09D-01  4.04D-01  1.85D-01
                    CP:  3.69D-01  9.32D-03  2.80D-01  1.60D-01  2.70D-01
                    CP:  5.94D-01  4.73D-01  6.08D-01  6.01D-01  9.45D-01
                    CP:  7.08D-01  9.39D-01  1.00D+00
 E= -5263.23406034002     Delta-E=       -0.001377256396 Rises=F Damp=F
 DIIS: error= 4.18D-04 at cycle  19 NSaved=  19.
 NSaved=19 IEnMin=19 EnMin= -5263.23406034002     IErMin=19 ErrMin= 4.18D-04
 ErrMax= 4.18D-04  0.00D+00 EMaxC= 1.00D-01 BMatC= 9.34D-04 BMatP= 5.70D-03
 IDIUse=3 WtCom= 9.96D-01 WtEn= 4.18D-03
 Coeff-Com:  0.501D-02-0.706D-02 0.952D-03-0.383D-03-0.535D-03 0.496D-04
 Coeff-Com:  0.167D-04 0.608D-03 0.170D-02-0.196D-02-0.129D-02-0.272D-02
 Coeff-Com:  0.774D-02 0.307D-01-0.706D-01-0.439D-01 0.154D+00 0.373D+00
 Coeff-Com:  0.555D+00
 Coeff-En:   0.000D+00 0.000D+00 0.000D+00 0.000D+00 0.000D+00 0.000D+00
 Coeff-En:   0.000D+00 0.000D+00 0.000D+00 0.000D+00 0.000D+00 0.000D+00
 Coeff-En:   0.000D+00 0.000D+00 0.000D+00 0.000D+00 0.000D+00 0.000D+00
 Coeff-En:   0.100D+01
 Coeff:      0.499D-02-0.703D-02 0.948D-03-0.382D-03-0.533D-03 0.494D-04
 Coeff:      0.166D-04 0.606D-03 0.169D-02-0.195D-02-0.128D-02-0.271D-02
 Coeff:      0.771D-02 0.305D-01-0.703D-01-0.437D-01 0.154D+00 0.371D+00
 Coeff:      0.557D+00
 Gap=     0.087 Goal=   None    Shift=    0.000
 Gap=     0.008 Goal=   None    Shift=    0.000
 RMSDP=3.51D-05 MaxDP=5.60D-03 DE=-1.38D-03 OVMax= 4.22D-02

 Cycle  20  Pass 1  IDiag  1:
 RMSU=  1.28D-05    CP:  9.99D-01  1.33D+00  2.09D-01  4.05D-01  1.80D-01
                    CP:  3.72D-01  1.16D-02  2.76D-01  1.62D-01  2.63D-01
                    CP:  5.92D-01  4.74D-01  5.77D-01  6.39D-01  9.36D-01
                    CP:  6.77D-01  1.05D+00  1.37D+00  1.25D+00
 E= -5263.23418098357     Delta-E=       -0.000120643550 Rises=F Damp=F
 DIIS: error= 3.76D-04 at cycle  20 NSaved=  20.
 NSaved=20 IEnMin=20 EnMin= -5263.23418098357     IErMin=20 ErrMin= 3.76D-04
 ErrMax= 3.76D-04  0.00D+00 EMaxC= 1.00D-01 BMatC= 5.51D-04 BMatP= 9.34D-04
 IDIUse=3 WtCom= 9.96D-01 WtEn= 3.76D-03
 Coeff-Com:  0.307D-02-0.418D-02 0.284D-03-0.149D-03-0.179D-04 0.899D-04
 Coeff-Com:  0.553D-04 0.186D-03-0.458D-03 0.678D-03-0.284D-03-0.263D-02
 Coeff-Com:  0.162D-01 0.908D-02-0.354D-01-0.238D-01 0.320D-01 0.141D+00
 Coeff-Com:  0.380D+00 0.484D+00
 Coeff-En:   0.000D+00 0.000D+00 0.000D+00 0.000D+00 0.000D+00 0.000D+00
 Coeff-En:   0.000D+00 0.000D+00 0.000D+00 0.000D+00 0.000D+00 0.000D+00
 Coeff-En:   0.000D+00 0.000D+00 0.000D+00 0.000D+00 0.000D+00 0.000D+00
 Coeff-En:   0.349D+00 0.651D+00
 Coeff:      0.306D-02-0.416D-02 0.283D-03-0.149D-03-0.179D-04 0.895D-04
 Coeff:      0.551D-04 0.185D-03-0.457D-03 0.676D-03-0.283D-03-0.262D-02
 Coeff:      0.161D-01 0.905D-02-0.352D-01-0.237D-01 0.319D-01 0.141D+00
 Coeff:      0.380D+00 0.484D+00
 Gap=     0.086 Goal=   None    Shift=    0.000
 Gap=     0.008 Goal=   None    Shift=    0.000
 RMSDP=1.71D-05 MaxDP=2.14D-03 DE=-1.21D-04 OVMax= 2.14D-02

 Cycle  21  Pass 1  IDiag  1:
 Restarting incremental Fock formation.
 E= -5263.23430484028     Delta-E=       -0.000123856709 Rises=F Damp=F
 DIIS: error= 1.06D-04 at cycle  21 NSaved=  20.
 NSaved=20 IEnMin=20 EnMin= -5263.23430484028     IErMin=20 ErrMin= 1.06D-04
 ErrMax= 1.06D-04  0.00D+00 EMaxC= 1.00D-01 BMatC= 5.85D-05 BMatP= 5.51D-04
 IDIUse=3 WtCom= 9.99D-01 WtEn= 1.06D-03
 Coeff-Com:  0.164D-02-0.178D-02-0.156D-03-0.746D-04-0.461D-05 0.216D-03
 Coeff-Com:  0.108D-03-0.350D-03 0.107D-03 0.297D-03-0.849D-03 0.366D-02
 Coeff-Com: -0.279D-02 0.830D-03 0.146D-01-0.152D-01-0.234D-01 0.485D-01
 Coeff-Com:  0.258D+00 0.717D+00
 Coeff-En:   0.000D+00 0.000D+00 0.000D+00 0.000D+00 0.000D+00 0.000D+00
 Coeff-En:   0.000D+00 0.000D+00 0.000D+00 0.000D+00 0.000D+00 0.000D+00
 Coeff-En:   0.000D+00 0.000D+00 0.000D+00 0.000D+00 0.000D+00 0.000D+00
 Coeff-En:   0.000D+00 0.100D+01
 Coeff:      0.163D-02-0.178D-02-0.155D-03-0.745D-04-0.461D-05 0.216D-03
 Coeff:      0.108D-03-0.349D-03 0.107D-03 0.297D-03-0.849D-03 0.365D-02
 Coeff:     -0.279D-02 0.829D-03 0.146D-01-0.152D-01-0.234D-01 0.484D-01
 Coeff:      0.257D+00 0.717D+00
 Gap=     0.086 Goal=   None    Shift=    0.000
 Gap=     0.008 Goal=   None    Shift=    0.000
 RMSDP=1.17D-05 MaxDP=1.33D-03 DE=-1.24D-04 OVMax= 1.55D-02

 Cycle  22  Pass 1  IDiag  1:
 RMSU=  1.17D-05    CP:  1.00D+00
 E= -5263.23431863464     Delta-E=       -0.000013794364 Rises=F Damp=F
 DIIS: error= 3.72D-05 at cycle  22 NSaved=  20.
 NSaved=20 IEnMin=20 EnMin= -5263.23431863464     IErMin=20 ErrMin= 3.72D-05
 ErrMax= 3.72D-05  0.00D+00 EMaxC= 1.00D-01 BMatC= 1.76D-05 BMatP= 5.85D-05
 IDIUse=1 WtCom= 1.00D+00 WtEn= 0.00D+00
 Coeff-Com:  0.150D-03-0.662D-05 0.582D-05-0.619D-04-0.235D-03 0.310D-04
 Coeff-Com:  0.257D-03-0.512D-03-0.377D-04 0.815D-04-0.914D-03-0.170D-02
 Coeff-Com:  0.890D-02 0.126D-01-0.176D-01-0.497D-01-0.689D-01 0.860D-02
 Coeff-Com:  0.441D+00 0.668D+00
 Coeff:      0.150D-03-0.662D-05 0.582D-05-0.619D-04-0.235D-03 0.310D-04
 Coeff:      0.257D-03-0.512D-03-0.377D-04 0.815D-04-0.914D-03-0.170D-02
 Coeff:      0.890D-02 0.126D-01-0.176D-01-0.497D-01-0.689D-01 0.860D-02
 Coeff:      0.441D+00 0.668D+00
 Gap=     0.086 Goal=   None    Shift=    0.000
 Gap=     0.008 Goal=   None    Shift=    0.000
 RMSDP=9.31D-06 MaxDP=1.09D-03 DE=-1.38D-05 OVMax= 1.24D-02

 Cycle  23  Pass 1  IDiag  1:
 RMSU=  3.28D-06    CP:  1.00D+00  1.75D+00
 E= -5263.23432043718     Delta-E=       -0.000001802540 Rises=F Damp=F
 DIIS: error= 7.07D-05 at cycle  23 NSaved=  20.
 NSaved=20 IEnMin=20 EnMin= -5263.23432043718     IErMin=19 ErrMin= 3.72D-05
 ErrMax= 7.07D-05  0.00D+00 EMaxC= 1.00D-01 BMatC= 2.37D-05 BMatP= 1.76D-05
 IDIUse=1 WtCom= 1.00D+00 WtEn= 0.00D+00
 Coeff-Com: -0.305D-03 0.354D-03 0.127D-04-0.177D-03 0.250D-04 0.164D-03
 Coeff-Com: -0.253D-03 0.159D-03-0.207D-03 0.771D-03-0.261D-03 0.288D-02
 Coeff-Com: -0.154D-02-0.171D-01-0.353D-01-0.509D-01-0.508D-01 0.128D+00
 Coeff-Com:  0.488D+00 0.536D+00
 Coeff:     -0.305D-03 0.354D-03 0.127D-04-0.177D-03 0.250D-04 0.164D-03
 Coeff:     -0.253D-03 0.159D-03-0.207D-03 0.771D-03-0.261D-03 0.288D-02
 Coeff:     -0.154D-02-0.171D-01-0.353D-01-0.509D-01-0.508D-01 0.128D+00
 Coeff:      0.488D+00 0.536D+00
 Gap=     0.086 Goal=   None    Shift=    0.000
 Gap=     0.008 Goal=   None    Shift=    0.000
 RMSDP=5.85D-06 MaxDP=8.12D-04 DE=-1.80D-06 OVMax= 7.69D-03

 Cycle  24  Pass 1  IDiag  1:
 RMSU=  3.59D-06    CP:  1.00D+00  2.14D+00  1.04D+00
 E= -5263.23432710904     Delta-E=       -0.000006671862 Rises=F Damp=F
 DIIS: error= 3.99D-05 at cycle  24 NSaved=  20.
 NSaved=20 IEnMin=20 EnMin= -5263.23432710904     IErMin=18 ErrMin= 3.72D-05
 ErrMax= 3.99D-05  0.00D+00 EMaxC= 1.00D-01 BMatC= 8.11D-06 BMatP= 1.76D-05
 IDIUse=1 WtCom= 1.00D+00 WtEn= 0.00D+00
 Coeff-Com: -0.446D-03 0.522D-03-0.820D-04-0.778D-05 0.556D-04 0.416D-04
 Coeff-Com: -0.829D-04-0.117D-04 0.173D-02 0.185D-02-0.336D-02-0.107D-01
 Coeff-Com: -0.666D-02-0.734D-02-0.360D-02-0.331D-01-0.103D+00 0.101D+00
 Coeff-Com:  0.403D+00 0.661D+00
 Coeff:     -0.446D-03 0.522D-03-0.820D-04-0.778D-05 0.556D-04 0.416D-04
 Coeff:     -0.829D-04-0.117D-04 0.173D-02 0.185D-02-0.336D-02-0.107D-01
 Coeff:     -0.666D-02-0.734D-02-0.360D-02-0.331D-01-0.103D+00 0.101D+00
 Coeff:      0.403D+00 0.661D+00
 Gap=     0.086 Goal=   None    Shift=    0.000
 Gap=     0.008 Goal=   None    Shift=    0.000
 RMSDP=5.79D-06 MaxDP=6.95D-04 DE=-6.67D-06 OVMax= 7.88D-03

 Cycle  25  Pass 1  IDiag  1:
 RMSU=  1.09D-06    CP:  1.00D+00  2.61D+00  1.44D+00  1.12D+00
 E= -5263.23432772809     Delta-E=       -0.000000619042 Rises=F Damp=F
 DIIS: error= 5.79D-05 at cycle  25 NSaved=  20.
 NSaved=20 IEnMin=20 EnMin= -5263.23432772809     IErMin=17 ErrMin= 3.72D-05
 ErrMax= 5.79D-05  0.00D+00 EMaxC= 1.00D-01 BMatC= 1.10D-05 BMatP= 8.11D-06
 IDIUse=1 WtCom= 1.00D+00 WtEn= 0.00D+00
 Coeff-Com: -0.248D-03 0.355D-03-0.372D-04 0.188D-07 0.589D-04-0.197D-03
 Coeff-Com:  0.155D-03 0.143D-02 0.166D-02-0.475D-02-0.934D-02-0.339D-02
 Coeff-Com:  0.312D-03 0.226D-01 0.222D-01-0.856D-01-0.969D-01-0.289D-01
 Coeff-Com:  0.387D+00 0.794D+00
 Coeff:     -0.248D-03 0.355D-03-0.372D-04 0.188D-07 0.589D-04-0.197D-03
 Coeff:      0.155D-03 0.143D-02 0.166D-02-0.475D-02-0.934D-02-0.339D-02
 Coeff:      0.312D-03 0.226D-01 0.222D-01-0.856D-01-0.969D-01-0.289D-01
 Coeff:      0.387D+00 0.794D+00
 Gap=     0.086 Goal=   None    Shift=    0.000
 Gap=     0.008 Goal=   None    Shift=    0.000
 RMSDP=4.23D-06 MaxDP=4.90D-04 DE=-6.19D-07 OVMax= 5.75D-03

 Cycle  26  Pass 1  IDiag  1:
 RMSU=  7.15D-07    CP:  1.00D+00  2.95D+00  1.65D+00  1.40D+00  1.76D+00
 E= -5263.23432923546     Delta-E=       -0.000001507378 Rises=F Damp=F
 DIIS: error= 4.75D-05 at cycle  26 NSaved=  20.
 NSaved=20 IEnMin=20 EnMin= -5263.23432923546     IErMin=16 ErrMin= 3.72D-05
 ErrMax= 4.75D-05  0.00D+00 EMaxC= 1.00D-01 BMatC= 8.12D-06 BMatP= 8.11D-06
 IDIUse=1 WtCom= 1.00D+00 WtEn= 0.00D+00
 Coeff-Com: -0.575D-04 0.858D-04-0.603D-04 0.285D-04-0.734D-04 0.356D-04
 Coeff-Com:  0.821D-03 0.572D-03-0.285D-02-0.348D-02-0.455D-02-0.392D-02
 Coeff-Com:  0.289D-01 0.717D-01 0.213D-01-0.173D+00-0.430D+00-0.144D+00
 Coeff-Com:  0.644D+00 0.995D+00
 Coeff:     -0.575D-04 0.858D-04-0.603D-04 0.285D-04-0.734D-04 0.356D-04
 Coeff:      0.821D-03 0.572D-03-0.285D-02-0.348D-02-0.455D-02-0.392D-02
 Coeff:      0.289D-01 0.717D-01 0.213D-01-0.173D+00-0.430D+00-0.144D+00
 Coeff:      0.644D+00 0.995D+00
 Gap=     0.086 Goal=   None    Shift=    0.000
 Gap=     0.008 Goal=   None    Shift=    0.000
 RMSDP=5.73D-06 MaxDP=6.61D-04 DE=-1.51D-06 OVMax= 7.68D-03

 Cycle  27  Pass 1  IDiag  1:
 RMSU=  4.12D-06    CP:  1.00D+00  3.00D+00  1.85D+00  2.21D+00  2.88D+00
                    CP:  1.73D+00
 E= -5263.23433195134     Delta-E=       -0.000002715880 Rises=F Damp=F
 DIIS: error= 1.24D-05 at cycle  27 NSaved=  20.
 NSaved=20 IEnMin=20 EnMin= -5263.23433195134     IErMin=20 ErrMin= 1.24D-05
 ErrMax= 1.24D-05  0.00D+00 EMaxC= 1.00D-01 BMatC= 5.37D-07 BMatP= 8.11D-06
 IDIUse=1 WtCom= 1.00D+00 WtEn= 0.00D+00
 Coeff-Com: -0.289D-04 0.385D-04-0.277D-04 0.253D-04-0.565D-04 0.448D-03
 Coeff-Com:  0.747D-04-0.107D-02-0.804D-03-0.269D-02-0.337D-02 0.179D-01
 Coeff-Com:  0.507D-01 0.325D-01-0.117D+00-0.318D+00-0.180D+00 0.271D+00
 Coeff-Com:  0.727D+00 0.523D+00
 Coeff:     -0.289D-04 0.385D-04-0.277D-04 0.253D-04-0.565D-04 0.448D-03
 Coeff:      0.747D-04-0.107D-02-0.804D-03-0.269D-02-0.337D-02 0.179D-01
 Coeff:      0.507D-01 0.325D-01-0.117D+00-0.318D+00-0.180D+00 0.271D+00
 Coeff:      0.727D+00 0.523D+00
 Gap=     0.086 Goal=   None    Shift=    0.000
 Gap=     0.008 Goal=   None    Shift=    0.000
 RMSDP=1.96D-06 MaxDP=2.49D-04 DE=-2.72D-06 OVMax= 2.62D-03

 Cycle  28  Pass 1  IDiag  1:
 RMSU=  4.65D-07    CP:  1.00D+00  3.00D+00  1.95D+00  2.50D+00  3.00D+00
                    CP:  1.93D+00  1.38D+00
 E= -5263.23433210066     Delta-E=       -0.000000149312 Rises=F Damp=F
 DIIS: error= 5.38D-06 at cycle  28 NSaved=  20.
 NSaved=20 IEnMin=20 EnMin= -5263.23433210066     IErMin=20 ErrMin= 5.38D-06
 ErrMax= 5.38D-06  0.00D+00 EMaxC= 1.00D-01 BMatC= 1.42D-07 BMatP= 5.37D-07
 IDIUse=1 WtCom= 1.00D+00 WtEn= 0.00D+00
 Coeff-Com: -0.926D-05-0.166D-05 0.171D-04-0.290D-04 0.599D-05-0.404D-04
 Coeff-Com: -0.186D-04 0.393D-03 0.240D-03-0.176D-03 0.355D-02 0.982D-02
 Coeff-Com:  0.910D-02-0.277D-01-0.787D-01-0.517D-01 0.123D-01 0.172D+00
 Coeff-Com:  0.356D+00 0.595D+00
 Coeff:     -0.926D-05-0.166D-05 0.171D-04-0.290D-04 0.599D-05-0.404D-04
 Coeff:     -0.186D-04 0.393D-03 0.240D-03-0.176D-03 0.355D-02 0.982D-02
 Coeff:      0.910D-02-0.277D-01-0.787D-01-0.517D-01 0.123D-01 0.172D+00
 Coeff:      0.356D+00 0.595D+00
 Gap=     0.086 Goal=   None    Shift=    0.000
 Gap=     0.008 Goal=   None    Shift=    0.000
 RMSDP=4.62D-07 MaxDP=5.98D-05 DE=-1.49D-07 OVMax= 6.07D-04

 Cycle  29  Pass 1  IDiag  1:
 RMSU=  2.18D-07    CP:  1.00D+00  3.00D+00  1.98D+00  2.53D+00  3.00D+00
                    CP:  1.95D+00  1.46D+00  1.23D+00
 E= -5263.23433212276     Delta-E=       -0.000000022101 Rises=F Damp=F
 DIIS: error= 4.46D-06 at cycle  29 NSaved=  20.
 NSaved=20 IEnMin=20 EnMin= -5263.23433212276     IErMin=20 ErrMin= 4.46D-06
 ErrMax= 4.46D-06  0.00D+00 EMaxC= 1.00D-01 BMatC= 9.07D-08 BMatP= 1.42D-07
 IDIUse=1 WtCom= 1.00D+00 WtEn= 0.00D+00
 Coeff-Com: -0.171D-05-0.137D-04 0.293D-05-0.849D-04 0.966D-04 0.191D-03
 Coeff-Com:  0.381D-03 0.785D-03 0.897D-03-0.456D-03-0.229D-02-0.406D-02
 Coeff-Com: -0.201D-02 0.297D-02 0.345D-02-0.185D-01-0.279D-03 0.138D+00
 Coeff-Com:  0.372D+00 0.509D+00
 Coeff:     -0.171D-05-0.137D-04 0.293D-05-0.849D-04 0.966D-04 0.191D-03
 Coeff:      0.381D-03 0.785D-03 0.897D-03-0.456D-03-0.229D-02-0.406D-02
 Coeff:     -0.201D-02 0.297D-02 0.345D-02-0.185D-01-0.279D-03 0.138D+00
 Coeff:      0.372D+00 0.509D+00
 Gap=     0.086 Goal=   None    Shift=    0.000
 Gap=     0.008 Goal=   None    Shift=    0.000
 RMSDP=3.02D-07 MaxDP=5.13D-05 DE=-2.21D-08 OVMax= 3.74D-04

 Cycle  30  Pass 1  IDiag  1:
 RMSU=  1.23D-07    CP:  1.00D+00  3.00D+00  2.00D+00  2.46D+00  3.00D+00
                    CP:  1.98D+00  1.48D+00  1.38D+00  1.29D+00
 E= -5263.23433214336     Delta-E=       -0.000000020607 Rises=F Damp=F
 DIIS: error= 2.08D-06 at cycle  30 NSaved=  20.
 NSaved=20 IEnMin=20 EnMin= -5263.23433214336     IErMin=20 ErrMin= 2.08D-06
 ErrMax= 2.08D-06  0.00D+00 EMaxC= 1.00D-01 BMatC= 1.97D-08 BMatP= 9.07D-08
 IDIUse=1 WtCom= 1.00D+00 WtEn= 0.00D+00
 Coeff-Com:  0.151D-04-0.301D-05 0.406D-04-0.421D-05 0.787D-04 0.675D-04
 Coeff-Com: -0.129D-03 0.568D-03-0.175D-02-0.536D-02-0.240D-02 0.156D-01
 Coeff-Com:  0.337D-01 0.439D-02-0.501D-01-0.473D-01-0.214D-01 0.137D-01
 Coeff-Com:  0.328D+00 0.732D+00
 Coeff:      0.151D-04-0.301D-05 0.406D-04-0.421D-05 0.787D-04 0.675D-04
 Coeff:     -0.129D-03 0.568D-03-0.175D-02-0.536D-02-0.240D-02 0.156D-01
 Coeff:      0.337D-01 0.439D-02-0.501D-01-0.473D-01-0.214D-01 0.137D-01
 Coeff:      0.328D+00 0.732D+00
[...]
 Vibration    37          0.687              1.690              1.468
 Vibration    38          0.691              1.678              1.430
 Vibration    39          0.695              1.667              1.399
 Vibration    40          0.704              1.640              1.322
 Vibration    41          0.707              1.631              1.299
 Vibration    42          0.713              1.616              1.261
 Vibration    43          0.729              1.569              1.152
 Vibration    44          0.739              1.542              1.095
 Vibration    45          0.743              1.531              1.074
 Vibration    46          0.746              1.523              1.058
 Vibration    47          0.766              1.470              0.963
 Vibration    48          0.773              1.453              0.934
 Vibration    49          0.785              1.422              0.884
 Vibration    50          0.877              1.201              0.605
 Vibration    51          0.958              1.032              0.450
 Vibration    52          0.968              1.013              0.435
                       Q            Log10(Q)             Ln(Q)
 Total Bot       0.474042D-53        -53.324183       -122.783470
 Total V=0       0.143646D+31         30.157294         69.439736
 Vib (Bot)       0.568432D-70        -70.245322       -161.745831
 Vib (Bot)    1  0.906505D+01          0.957370          2.204427
 Vib (Bot)    2  0.671146D+01          0.826817          1.903817
 Vib (Bot)    3  0.483443D+01          0.684345          1.575764
 Vib (Bot)    4  0.365731D+01          0.563162          1.296728
 Vib (Bot)    5  0.278143D+01          0.444267          1.022964
 Vib (Bot)    6  0.238137D+01          0.376826          0.867675
 Vib (Bot)    7  0.232933D+01          0.367231          0.845580
 Vib (Bot)    8  0.222434D+01          0.347202          0.799461
 Vib (Bot)    9  0.204514D+01          0.310723          0.715466
 Vib (Bot)   10  0.186793D+01          0.271360          0.624830
 Vib (Bot)   11  0.174592D+01          0.242023          0.557279
 Vib (Bot)   12  0.168121D+01          0.225622          0.519514
 Vib (Bot)   13  0.153185D+01          0.185216          0.426475
 Vib (Bot)   14  0.151060D+01          0.179149          0.412505
 Vib (Bot)   15  0.148092D+01          0.170533          0.392666
 Vib (Bot)   16  0.140127D+01          0.146521          0.337376
 Vib (Bot)   17  0.136027D+01          0.133624          0.307681
 Vib (Bot)   18  0.126646D+01          0.102590          0.236222
 Vib (Bot)   19  0.124426D+01          0.094910          0.218539
 Vib (Bot)   20  0.116807D+01          0.067470          0.155355
 Vib (Bot)   21  0.112330D+01          0.050495          0.116270
 Vib (Bot)   22  0.109195D+01          0.038202          0.087963
 Vib (Bot)   23  0.108273D+01          0.034519          0.079483
 Vib (Bot)   24  0.106658D+01          0.027992          0.064454
 Vib (Bot)   25  0.103685D+01          0.015714          0.036184
 Vib (Bot)   26  0.961834D+00         -0.016900         -0.038913
 Vib (Bot)   27  0.905220D+00         -0.043246         -0.099577
 Vib (Bot)   28  0.879490D+00         -0.055769         -0.128413
 Vib (Bot)   29  0.864138D+00         -0.063417         -0.146022
 Vib (Bot)   30  0.838790D+00         -0.076347         -0.175794
 Vib (Bot)   31  0.822357D+00         -0.084940         -0.195580
 Vib (Bot)   32  0.780235D+00         -0.107775         -0.248160
 Vib (Bot)   33  0.724363D+00         -0.140044         -0.322462
 Vib (Bot)   34  0.711526D+00         -0.147809         -0.340343
 Vib (Bot)   35  0.685421D+00         -0.164043         -0.377722
 Vib (Bot)   36  0.675551D+00         -0.170342         -0.392226
 Vib (Bot)   37  0.656814D+00         -0.182558         -0.420355
 Vib (Bot)   38  0.639925D+00         -0.193871         -0.446405
 Vib (Bot)   39  0.625863D+00         -0.203521         -0.468624
 Vib (Bot)   40  0.592457D+00         -0.227343         -0.523477
 Vib (Bot)   41  0.582521D+00         -0.234688         -0.540390
 Vib (Bot)   42  0.566477D+00         -0.246818         -0.568319
 Vib (Bot)   43  0.521377D+00         -0.282848         -0.651281
 Vib (Bot)   44  0.498265D+00         -0.302539         -0.696623
 Vib (Bot)   45  0.489856D+00         -0.309931         -0.713644
 Vib (Bot)   46  0.483467D+00         -0.315633         -0.726773
 Vib (Bot)   47  0.445780D+00         -0.350879         -0.807929
 Vib (Bot)   48  0.434253D+00         -0.362257         -0.834128
 Vib (Bot)   49  0.414956D+00         -0.381998         -0.879584
 Vib (Bot)   50  0.308498D+00         -0.510748         -1.176040
 Vib (Bot)   51  0.249019D+00         -0.603768         -1.390228
 Vib (Bot)   52  0.243001D+00         -0.614392         -1.414689
 Vib (V=0)       0.172249D+14         13.236156         30.477375
 Vib (V=0)    1  0.957883D+01          0.981313          2.259556
 Vib (V=0)    2  0.723006D+01          0.859142          1.978248
 Vib (V=0)    3  0.536022D+01          0.729183          1.679005
 Vib (V=0)    4  0.419133D+01          0.622352          1.433019
 Vib (V=0)    5  0.332601D+01          0.521923          1.201773
 Vib (V=0)    6  0.293329D+01          0.467355          1.076125
 Vib (V=0)    7  0.288239D+01          0.459752          1.058619
 Vib (V=0)    8  0.277985D+01          0.444021          1.022395
 Vib (V=0)    9  0.260537D+01          0.415870          0.957576
 Vib (V=0)   10  0.243369D+01          0.386265          0.889408
 Vib (V=0)   11  0.231610D+01          0.364757          0.839885
 Vib (V=0)   12  0.225399D+01          0.352951          0.812700
 Vib (V=0)   13  0.211138D+01          0.324567          0.747344
 Vib (V=0)   14  0.209120D+01          0.320395          0.737736
 Vib (V=0)   15  0.206305D+01          0.314510          0.724187
 Vib (V=0)   16  0.198780D+01          0.298372          0.687028
 Vib (V=0)   17  0.194925D+01          0.289868          0.667445
 Vib (V=0)   18  0.186158D+01          0.269882          0.621427
 Vib (V=0)   19  0.184096D+01          0.265045          0.610288
 Vib (V=0)   20  0.177059D+01          0.248118          0.571312
 Vib (V=0)   21  0.172955D+01          0.237934          0.547863
 Vib (V=0)   22  0.170098D+01          0.230699          0.531204
 Vib (V=0)   23  0.169260D+01          0.228555          0.526266
 Vib (V=0)   24  0.167796D+01          0.224781          0.517578
 Vib (V=0)   25  0.165111D+01          0.217776          0.501447
 Vib (V=0)   26  0.158403D+01          0.199764          0.459974
 Vib (V=0)   27  0.153413D+01          0.185862          0.427963
 Vib (V=0)   28  0.151168D+01          0.179461          0.413224
 Vib (V=0)   29  0.149837D+01          0.175618          0.404375
 Vib (V=0)   30  0.147651D+01          0.169236          0.389680
 Vib (V=0)   31  0.146243D+01          0.165075          0.380099
 Vib (V=0)   32  0.142670D+01          0.154332          0.355362
 Vib (V=0)   33  0.138017D+01          0.139933          0.322208
 Vib (V=0)   34  0.136964D+01          0.136606          0.314546
 Vib (V=0)   35  0.134841D+01          0.129822          0.298927
 Vib (V=0)   36  0.134046D+01          0.127253          0.293011
 Vib (V=0)   37  0.132547D+01          0.122371          0.281769
 Vib (V=0)   38  0.131210D+01          0.117966          0.271628
 Vib (V=0)   39  0.130106D+01          0.114299          0.263183
 Vib (V=0)   40  0.127525D+01          0.105594          0.243139
 Vib (V=0)   41  0.126768D+01          0.103009          0.237187
 Vib (V=0)   42  0.125558D+01          0.098843          0.227595
 Vib (V=0)   43  0.122238D+01          0.087207          0.200801
 Vib (V=0)   44  0.120588D+01          0.081305          0.187211
 Vib (V=0)   45  0.119997D+01          0.079171          0.182297
 Vib (V=0)   46  0.119551D+01          0.077555          0.178576
 Vib (V=0)   47  0.116987D+01          0.068136          0.156889
 Vib (V=0)   48  0.116225D+01          0.065300          0.150358
 Vib (V=0)   49  0.114976D+01          0.060607          0.139553
 Vib (V=0)   50  0.108751D+01          0.036434          0.083893
 Vib (V=0)   51  0.105858D+01          0.024723          0.056927
 Vib (V=0)   52  0.105592D+01          0.023632          0.054415
 Electronic      0.150000D+02          1.176091          2.708050
 Translational   0.460439D+09          8.663172         19.947692
 Rotational      0.120747D+08          7.081875         16.306619
 
                                                      FeFeFe-TS1-1xH2O-reactant
                                                             IR Spectrum
 
     3   3                   222222               11111111111111111111111                                                            
     8   7                   999999               976666654444433333330007777776666544433333333222222222222211111111111111111        
     1   1                   877766               10951108100009998877555555433750022007765321099887653322109888776644333211098875432
     2   5                   175476               02098165052208326396752971497309022805163028381401709484973854922095753270028646313
 
     X   X                   XXXXXX               XXXXXXXXXXXXXXXXXXXX XXXXXXXXXXXXXXXXXXXXXXXXXXXXXXXXXXXXXXXXXXXXXXXXXXXXXXXXXXXXXX
                                 X                XXX        X X  X X           XXXX XX                                              
                                                  XXX             X             X X  X                                               
                                                   XX                             X                                                  
                                                   XX                                                                                
                                                   XX                                                                                
                                                   XX                                                                                
                                                   XX                                                                                
                                                   XX                                                                                
                                                   XX                                                                                
                                                   XX                                                                                
                                                   XX                                                                                
                                                   XX                                                                                
                                                   XX                                                                                
                                                   XX                                                                                
                                                   X                                                                                 
                                                   X                                                                                 
                                                   X                                                                                 
                                                   X                                                                                 
                                                   X                                                                                 
 
 -------------------------------------------------------------------
 Center     Atomic                   Forces (Hartrees/Bohr)
 Number     Number              X              Y              Z
 -------------------------------------------------------------------
      1        8           0.000201143    0.000633903    0.000268308
      2        8          -0.001668576    0.000522589    0.002129655
      3        6          -0.000082863    0.000460343   -0.002829519
      4        1          -0.000270554    0.000018437   -0.000547688
      5        8          -0.000437305    0.001780986    0.001395416
      6        8           0.001204879    0.000799634   -0.000463316
      7        6           0.001571271   -0.000895551   -0.000741344
      8        1           0.000898155   -0.000130166   -0.000632628
      9        8           0.000990046    0.002303830    0.002050763
     10        8           0.000123775    0.001344655    0.000725925
     11        8           0.000516481    0.000185898    0.000193178
     12        6          -0.000033317    0.000745014   -0.000016477
     13        1          -0.000091736    0.000594885   -0.000170837
     14        8           0.000847183   -0.001132650    0.002741947
     15        8           0.000787705   -0.000238324    0.001401977
     16        6           0.000616444   -0.000072064   -0.003301782
     17        1           0.000194097   -0.000255022   -0.000575128
     18       26          -0.003215617   -0.003988212   -0.014221553
     19        8           0.001927752    0.001260140    0.001893537
     20       26          -0.000283344   -0.000377905   -0.001710310
     21        8           0.000506061    0.001335602    0.002079229
     22        8           0.001928218   -0.000564891    0.001873400
     23       26          -0.003357983   -0.002194469    0.001045052
     24        8           0.000638484    0.000768576    0.002771036
     25        6          -0.001553303   -0.001365973   -0.001633307
     26        1           0.000179623    0.000287379    0.000171782
     27        6          -0.001802832   -0.001438301   -0.001205864
     28        1           0.000394002    0.000182771    0.000169038
     29        7           0.004699864    0.004522583    0.034308935
     30        7          -0.004407409   -0.004330532   -0.030519835
     31        8          -0.000429808    0.000006133    0.003700231
     32        8          -0.000305290   -0.000126696   -0.000095162
     33        1          -0.000020899   -0.000163251   -0.000182940
     34        1          -0.000264348   -0.000479354   -0.000071719
 -------------------------------------------------------------------
 Cartesian Forces:  Max     0.034308935 RMS     0.005015086
 Leave Link  716 at Tue Feb 21 23:59:42 2023, MaxMem= 14763950080 cpu:               0.1 elap:               0.1
 (Enter /software/commercial/gaussian/g16/AVX2/g16/l9999.exe)

 ----------------------------------------------------------------------

 Electric dipole moment (input orientation):
 (Debye = 10**-18 statcoulomb cm , SI units = C m)
                  (au)            (Debye)         (10**-30 SI)
   Tot        0.195700D+01      0.497419D+01      0.165921D+02
   x         -0.133085D+01     -0.338268D+01     -0.112834D+02
   y         -0.790138D+00     -0.200833D+01     -0.669907D+01
   z         -0.119765D+01     -0.304412D+01     -0.101541D+02

 Dipole polarizability, Alpha (input orientation).
 (esu units = cm**3 , SI units = C**2 m**2 J**-1)
 Alpha(0;0):
               (au)            (10**-24 esu)      (10**-40 SI)
   iso        0.255457D+03      0.378548D+02      0.421191D+02
   aniso      0.121627D+03      0.180233D+02      0.200536D+02
   xx         0.215103D+03      0.318750D+02      0.354657D+02
   yx         0.183774D+02      0.272325D+01      0.303002D+01
   yy         0.221382D+03      0.328055D+02      0.365010D+02
   zx         0.132120D+02      0.195782D+01      0.217837D+01
   zy         0.159454D+02      0.236287D+01      0.262905D+01
   zz         0.329885D+03      0.488839D+02      0.543906D+02

 ----------------------------------------------------------------------

 Dipole orientation:
     8         -0.03736827         -0.04836158          0.06907351
     8         -2.88989107          1.66702337         -2.58926708
     6         -0.73188796          0.99509154         -1.96293136
     1          0.78910232          1.34021408         -3.34816141
     8         -5.51974547          0.80679425          8.10582959
     8         -3.72602933         -2.52702125          6.17373246
     6         -4.98196202         -1.49163763          7.88734339
     1         -5.69875961         -2.74992551          9.39121094
     8         -5.58522272          5.94709179         -0.55247131
     8          0.20928714          0.98193783          5.28410395
     8         -1.90330510          4.43150159          6.61592985
     6          0.01797812          3.06901600          6.38932986
     1          1.75988519          3.79906583          7.27415445
     8         -7.03496238         -1.73637061         -0.90134726
     8         -3.86572182         -3.72410836          1.13155177
     6         -5.86095309         -3.63309225         -0.17700597
     1         -6.64575617         -5.48489338         -0.73165942
    26         -6.44683124          2.12485562         -1.04366223
     8         -9.75912909          2.66700643          1.04295106
    26         -5.49490283          3.72854694          5.40108000
     8         -9.33231658          3.30109432          5.22909648
     8         -5.68743683          6.97391212          3.57862496
    26         -2.29671947         -0.83259148          2.98156422
     8         -4.68594482          1.66869291          2.60797261
     6        -10.57658131          2.95130794          3.21814245
     1        -12.64892697          2.90415503          3.46486513
     6         -5.51306525          7.44817309          1.24184601
     1         -5.27246589          9.46852842          0.78139384
     7        -10.41533245          4.14803006         -4.24119552
     7        -11.65872647          4.74334258         -5.89665596
     8         -8.02498894          2.53516221         -4.09967282
     8         -6.75038962          5.69468449          8.85037182
     1         -6.36713761          4.44494341         10.12728917
     1         -8.55572434          5.54059934          8.59403624

 Electric dipole moment (dipole orientation):
 (Debye = 10**-18 statcoulomb cm , SI units = C m)
                  (au)            (Debye)         (10**-30 SI)
   Tot        0.195700D+01      0.497419D+01      0.165921D+02
   x          0.000000D+00      0.000000D+00      0.000000D+00
   y          0.000000D+00      0.000000D+00      0.000000D+00
   z          0.195700D+01      0.497419D+01      0.165921D+02

 Dipole polarizability, Alpha (dipole orientation).
 (esu units = cm**3 , SI units = C**2 m**2 J**-1)
 Alpha(0;0):
               (au)            (10**-24 esu)      (10**-40 SI)
   iso        0.255457D+03      0.378548D+02      0.421191D+02
   aniso      0.121627D+03      0.180233D+02      0.200536D+02
   xx         0.254783D+03      0.377549D+02      0.420080D+02
   yx        -0.319430D+02     -0.473347D+01     -0.526670D+01
   yy         0.223504D+03      0.331198D+02      0.368508D+02
   zx         0.514233D+02      0.762015D+01      0.847856D+01
   zy        -0.149452D+02     -0.221464D+01     -0.246412D+01
   zz         0.288084D+03      0.426896D+02      0.474986D+02

 ----------------------------------------------------------------------


 LIFE CAN ONLY BE UNDERSTOOD BACKWARD, BUT MUST
 BE LIVED FORWARD. -- KIRKEGAARD
 Error termination request processed by link 9999.
 Error termination via Lnk1e in /software/commercial/gaussian/g16/AVX2/g16/l9999.exe at Tue Feb 21 23:59:43 2023.
 Job cpu time:       2 days 23 hours 33 minutes 10.5 seconds.
 Elapsed time:       1 days 12 hours 20 minutes 47.7 seconds.
 File lengths (MBytes):  RWF=   5077 Int=      0 D2E=      0 Chk=     88 Scr=      1
