 Entering Gaussian System, Link 0=g16
 Input=FeFeFe-TS1-2xH2O-QST2-H2O_relax-1xH2O-freq.gjf
 Output=FeFeFe-TS1-2xH2O-QST2-H2O_relax-1xH2O-freq.log
 AtFile(1): /zfs/curium/svicchi/00-MOF/01-Gaussian/zw-basis-set/def2-TZVP/H.gbs
            !----------------------------------------------------------------------
            ! Basis Set Exchange
            ! Version v0.9
            ! https://www.basissetexchange.org
            !----------------------------------------------------------------------
            !   Basis set: def2-TZVP
            ! Description: def2-TZVP
            !        Role: orbital
            !     Version: 1  (Data from Turbomole 7.3)
            !----------------------------------------------------------------------
            H     0
            S    3   1.00
                 34.0613410              0.60251978D-02
                  5.1235746              0.45021094D-01
                  1.1646626              0.20189726
            S    1   1.00
                  0.32723041             1.0000000
            S    1   1.00
                  0.10307241             1.0000000
            P    1   1.00
                  0.8000000              1.0000000
 AtFile(1): /zfs/curium/svicchi/00-MOF/01-Gaussian/zw-basis-set/def2-TZVP/O.gbs
            !----------------------------------------------------------------------
            ! Basis Set Exchange
            ! Version v0.9
            ! https://www.basissetexchange.org
            !----------------------------------------------------------------------
            !   Basis set: def2-TZVP
            ! Description: def2-TZVP
            !        Role: orbital
            !     Version: 1  (Data from Turbomole 7.3)
            !----------------------------------------------------------------------
            O     0
            S    6   1.00
              27032.3826310              0.21726302465D-03
               4052.3871392              0.16838662199D-02
                922.32722710             0.87395616265D-02
                261.24070989             0.35239968808D-01
                 85.354641351            0.11153519115
                 31.035035245            0.25588953961
            S    2   1.00
                 12.260860728            0.39768730901
                  4.9987076005           0.24627849430
            S    1   1.00
                  1.1703108158           1.0000000
            S    1   1.00
                  0.46474740994          1.0000000
            S    1   1.00
                  0.18504536357          1.0000000
            P    4   1.00
                 63.274954801            0.60685103418D-02
                 14.627049379            0.41912575824D-01
                  4.4501223456           0.16153841088
                  1.5275799647           0.35706951311
            P    1   1.00
                  0.52935117943           .44794207502
            P    1   1.00
                  0.17478421270           .24446069663
            D    1   1.00
                  2.31400000             1.0000000
            D    1   1.00
                  0.64500000             1.0000000
            F    1   1.00
                  1.42800000             1.0000000
 AtFile(1): /zfs/curium/svicchi/00-MOF/01-Gaussian/zw-basis-set/def2-TZVP/C.gbs
            !----------------------------------------------------------------------
            ! Basis Set Exchange
            ! Version v0.9
            ! https://www.basissetexchange.org
            !----------------------------------------------------------------------
            !   Basis set: def2-TZVP
            ! Description: def2-TZVP
            !        Role: orbital
            !     Version: 1  (Data from Turbomole 7.3)
            !----------------------------------------------------------------------
            C     0
            S    6   1.00
              13575.3496820              0.22245814352D-03
               2035.2333680              0.17232738252D-02
                463.22562359             0.89255715314D-02
                131.20019598             0.35727984502D-01
                 42.853015891            0.11076259931
                 15.584185766            0.24295627626
            S    2   1.00
                  6.2067138508           0.41440263448
                  2.5764896527           0.23744968655
            S    1   1.00
                  0.57696339419          1.0000000
            S    1   1.00
                  0.22972831358          1.0000000
            S    1   1.00
                  0.95164440028D-01      1.0000000
            P    4   1.00
                 34.697232244            0.53333657805D-02
                  7.9582622826           0.35864109092D-01
                  2.3780826883           0.14215873329
                  0.81433208183          0.34270471845
            P    1   1.00
                  0.28887547253           .46445822433
            P    1   1.00
                  0.10056823671           .24955789874
            D    1   1.00
                  1.09700000             1.0000000
            D    1   1.00
                  0.31800000             1.0000000
            F    1   1.00
                  0.76100000             1.0000000
 AtFile(1): /zfs/curium/svicchi/00-MOF/01-Gaussian/zw-basis-set/def2-TZVP/Fe.gbs
            !----------------------------------------------------------------------
            ! Basis Set Exchange
            ! Version v0.9
            ! https://www.basissetexchange.org
            !----------------------------------------------------------------------
            !   Basis set: def2-TZVP
            ! Description: def2-TZVP
            !        Role: orbital
            !     Version: 1  (Data from Turbomole 7.3)
            !----------------------------------------------------------------------
            Fe     0
            S    8   1.00
             300784.8463700              0.22806273096D-03
              45088.9705570              0.17681788761D-02
              10262.5163170              0.91927083490D-02
               2905.2897293              0.37355495807D-01
                946.11487137             0.12151108426
                339.87832894             0.28818881468
                131.94425588             0.41126612677
                 52.111494077            0.21518583573
            S    4   1.00
                329.48839267            -0.24745216477D-01
                101.92332739            -0.11683089050
                 16.240462745            0.55293621136
                  6.8840675801           0.53601640182
            S    2   1.00
                 10.470693782           -0.22912708577
                  1.7360039648           0.71159319984
            S    1   1.00
                  0.72577288979          1.0000000
            S    1   1.00
                  0.11595528203          1.0000000
            S    1   1.00
                  0.41968227746D-01      1.0000000
            P    6   1.00
               1585.3959970              0.23793960179D-02
                375.38006499             0.19253154755D-01
                120.31816501             0.90021836536D-01
                 44.788749031            0.25798172356
                 17.829278584            0.41492649744
                  7.2247153786           0.24207474784
            P    3   1.00
                 28.143219756           -0.29041755152D-01
                  3.8743241412           0.55312260343
                  1.5410752281           0.96771136842
            P    1   1.00
                  0.58285615250          1.0000000
            P    1   1.00
                  0.1349150              1.0000000
            D    4   1.00
                 61.996675034            0.11971972255D-01
                 17.873732552            0.73210135410D-01
                  6.2744782934           0.23103094314
                  2.3552337175           0.39910706494
            D    1   1.00
                  0.85432239901           .41391589765
            D    1   1.00
                  0.27869254413           .21909269782
            D    1   1.00
                  0.0910000              1.0000000
            F    1   1.00
                  1.5980000              1.0000000
 AtFile(1): /zfs/curium/svicchi/00-MOF/01-Gaussian/zw-basis-set/def2-TZVP/N.gbs
            !----------------------------------------------------------------------
            ! Basis Set Exchange
            ! Version v0.9
            ! https://www.basissetexchange.org
            !----------------------------------------------------------------------
            !   Basis set: def2-TZVP
            ! Description: def2-TZVP
            !        Role: orbital
            !     Version: 1  (Data from Turbomole 7.3)
            !----------------------------------------------------------------------
            N     0
            S    6   1.00
              19730.8006470              0.21887984991D-03
               2957.8958745              0.16960708803D-02
                673.22133595             0.87954603538D-02
                190.68249494             0.35359382605D-01
                 62.295441898            0.11095789217
                 22.654161182            0.24982972552
            S    2   1.00
                  8.9791477428           0.40623896148
                  3.6863002370           0.24338217176
            S    1   1.00
                  0.84660076805          1.0000000
            S    1   1.00
                  0.33647133771          1.0000000
            S    1   1.00
                  0.13647653675          1.0000000
            P    4   1.00
                 49.200380510            0.55552416751D-02
                 11.346790537            0.38052379723D-01
                  3.4273972411           0.14953671029
                  1.1785525134           0.34949305230
            P    1   1.00
                  0.41642204972           .45843153697
            P    1   1.00
                  0.14260826011           .24428771672
            D    1   1.00
                  1.65400000             1.0000000
            D    1   1.00
                  0.46900000             1.0000000
            F    1   1.00
                  1.09300000             1.0000000
 Initial command:
 /software/commercial/gaussian/g16/AVX2/g16/l1.exe "/scratch1/svicchi/G09-176073.pbs02/Gau-1143748.inp" -scrdir="/scratch1/svicchi/G09-176073.pbs02/"
 Entering Link 1 = /software/commercial/gaussian/g16/AVX2/g16/l1.exe PID=   1143749.
  
 Copyright (c) 1988-2021, Gaussian, Inc.  All Rights Reserved.
  
 This is part of the Gaussian(R) 16 program.  It is based on
 the Gaussian(R) 09 system (copyright 2009, Gaussian, Inc.),
 the Gaussian(R) 03 system (copyright 2003, Gaussian, Inc.),
 the Gaussian(R) 98 system (copyright 1998, Gaussian, Inc.),
 the Gaussian(R) 94 system (copyright 1995, Gaussian, Inc.),
 the Gaussian 92(TM) system (copyright 1992, Gaussian, Inc.),
 the Gaussian 90(TM) system (copyright 1990, Gaussian, Inc.),
 the Gaussian 88(TM) system (copyright 1988, Gaussian, Inc.),
 the Gaussian 86(TM) system (copyright 1986, Carnegie Mellon
 University), and the Gaussian 82(TM) system (copyright 1983,
 Carnegie Mellon University). Gaussian is a federally registered
 trademark of Gaussian, Inc.
  
 This software contains proprietary and confidential information,
 including trade secrets, belonging to Gaussian, Inc.
  
 This software is provided under written license and may be
 used, copied, transmitted, or stored only in accord with that
 written license.
  
 The following legend is applicable only to US Government
 contracts under FAR:
  
                    RESTRICTED RIGHTS LEGEND
  
 Use, reproduction and disclosure by the US Government is
 subject to restrictions as set forth in subparagraphs (a)
 and (c) of the Commercial Computer Software - Restricted
 Rights clause in FAR 52.227-19.
  
 Gaussian, Inc.
 340 Quinnipiac St., Bldg. 40, Wallingford CT 06492
  
  
 ---------------------------------------------------------------
 Warning -- This program may not be used in any manner that
 competes with the business of Gaussian, Inc. or will provide
 assistance to any competitor of Gaussian, Inc.  The licensee
 of this program is prohibited from giving any competitor of
 Gaussian, Inc. access to this program.  By using this program,
 the user acknowledges that Gaussian, Inc. is engaged in the
 business of creating and licensing software in the field of
 computational chemistry and represents and warrants to the
 licensee that it is not a competitor of Gaussian, Inc. and that
 it will not use this program in any manner prohibited above.
 ---------------------------------------------------------------
  

 Cite this work as:
 Gaussian 16, Revision C.02,
 M. J. Frisch, G. W. Trucks, H. B. Schlegel, G. E. Scuseria, 
 M. A. Robb, J. R. Cheeseman, G. Scalmani, V. Barone, 
 G. A. Petersson, H. Nakatsuji, X. Li, M. Caricato, A. V. Marenich, 
 J. Bloino, B. G. Janesko, R. Gomperts, B. Mennucci, H. P. Hratchian, 
 J. V. Ortiz, A. F. Izmaylov, J. L. Sonnenberg, D. Williams-Young, 
 F. Ding, F. Lipparini, F. Egidi, J. Goings, B. Peng, A. Petrone, 
 T. Henderson, D. Ranasinghe, V. G. Zakrzewski, J. Gao, N. Rega, 
 G. Zheng, W. Liang, M. Hada, M. Ehara, K. Toyota, R. Fukuda, 
 J. Hasegawa, M. Ishida, T. Nakajima, Y. Honda, O. Kitao, H. Nakai, 
 T. Vreven, K. Throssell, J. A. Montgomery, Jr., J. E. Peralta, 
 F. Ogliaro, M. J. Bearpark, J. J. Heyd, E. N. Brothers, K. N. Kudin, 
 V. N. Staroverov, T. A. Keith, R. Kobayashi, J. Normand, 
 K. Raghavachari, A. P. Rendell, J. C. Burant, S. S. Iyengar, 
 J. Tomasi, M. Cossi, J. M. Millam, M. Klene, C. Adamo, R. Cammi, 
 J. W. Ochterski, R. L. Martin, K. Morokuma, O. Farkas, 
 J. B. Foresman, and D. J. Fox, Gaussian, Inc., Wallingford CT, 2019.
 
 ******************************************
 Gaussian 16:  ES64L-G16RevC.02  7-Dec-2021
                22-Feb-2023 
 ******************************************
 %NProcShared=2
 Will use up to    2 processors via shared memory.
 %mem=110gb
 %chk=/scratch1/svicchi/G09-176073.pbs02/02-freq/FeFeFe-TS1-2xH2O-QST2-H2O_relax-
 1xH2O-freq.chk
 ----------------------------------------------------------------------
 #p freq=raman scale=0.967 guess=read geom=allcheck gen um06l int=grid=
 ultrafine scf=(xqc,intrep,maxconventionalcycle=150) pop=(hirshfeld) no
 symm
 ----------------------------------------------------------------------
 1/10=4,29=7,30=1,38=1,114=967000/1,3;
 2/12=2,15=1,40=1/2;
 3/5=7,11=2,14=-4,25=1,30=1,71=2,74=-53,75=-5,116=2,140=1/1,2,3;
 4/5=1/1;
 5/5=2,8=3,13=1,17=20,38=6,85=150,98=1/2,8;
 8/6=4,10=90,11=11/1;
 10/13=10,15=4,31=1/2;
 11/6=3,8=1,9=11,15=111,16=1,31=1/1,2,10;
 10/6=1,31=1/2;
 6/7=2,8=2,9=2,10=2,28=1,79=1/1;
 7/8=1,10=1,25=1,30=1/1,2,3,16;
 1/10=4,30=1/3;
 99//99;
 Leave Link    1 at Wed Feb 22 01:40:29 2023, MaxMem= 14763950080 cpu:               0.0 elap:               0.1
 (Enter /software/commercial/gaussian/g16/AVX2/g16/l101.exe)
 Structure from the checkpoint file:  "/scratch1/svicchi/G09-176073.pbs02/02-freq/FeFeFe-TS1-2xH2O-QST2-H2O_relax-1xH2O-freq.chk"
 -------------------------
 FeFeFe-TS1-1xH2O-reactant
 -------------------------
 Charge =  0 Multiplicity =15
 No Z-Matrix found in chk file; cartesian coordinates used.
  O                                                -0.043317531491      0.011614079947     -0.019254438811
  O                                                -0.008488763532      0.020748599873      2.234666343774
  C                                                 0.519896791606      0.012030881635      1.111677412068
  H                                                 1.623462753713      0.006736588414      1.086666241689
  O                                                -4.927221915287     -1.618096051510     -0.466310336536
  O                                                -3.855541560991      0.218804654413     -1.198389704959
  C                                                -4.852826377219     -0.526608472364     -1.080156110294
  H                                                -5.777922755956     -0.184788144147     -1.578068959999
  O                                                -1.372790819913     -2.207352484097      3.459471371827
  O                                                -1.734081065101     -1.614913299790     -1.576760954442
  O                                                -2.699643227836     -3.349878193541     -0.510802818281
  C                                                -2.015887625374     -2.826553786197     -1.419924252110
  H                                                -1.611174386390     -3.519865626342     -2.177344654243
  O                                                -2.486864671036      1.652600039127      2.452551203319
  O                                                -2.201650352981      1.878095467935      0.229012590340
  C                                                -2.475464943671      2.294222533492      1.390245500080
  H                                                -2.738930244125      3.364299175693      1.456644350987
  Fe                                               -1.865682089878     -0.206648407517      3.111963537548
  O                                                -3.817646960067     -0.611792811726      3.744033558764
  Fe                                               -3.681150889787     -2.432221476253      1.024923477154
  O                                                -5.105878828136     -1.846268452823      2.370243561133
  O                                                -2.805447631304     -3.569191324965      2.377796516268
  Fe                                               -2.014698783562     -0.033979900293     -0.316949662712
  O                                                -2.556404180441     -0.928577120819      1.198248697082
  C                                                -4.883271608181     -1.138085201613      3.394519039745
  H                                                -5.758331136541     -0.981579599575      4.050309000650
  C                                                -1.855974012982     -3.311231340222      3.173133964069
  H                                                -1.417376329356     -4.195548564896      3.667326646345
  N                                                -2.030200950610     -0.128128205160      6.007862924274
  N                                                -1.850008651883      0.054474537602      7.118624973110
  O                                                -1.324482911029      0.393363832443      4.757232046566
  O                                                -5.218985152387     -3.991237942889      0.779761870435
  H                                                -5.646523838876     -3.704146551813     -0.038697184435
  H                                                -5.821890349397     -3.700454432024      1.479531249596
 Recover connectivity data from disk.
 ITRead=  0  0  0  0  0  0  0  0  0  0  0  0  0  0  0  0  0  0  0  0
 ITRead=  0  0  0  0  0  0  0  0  0  0  0  0  0  0
 MicOpt= -1 -1 -1 -1 -1 -1 -1 -1 -1 -1 -1 -1 -1 -1 -1 -1 -1 -1 -1 -1
 MicOpt= -1 -1 -1 -1 -1 -1 -1 -1 -1 -1 -1 -1 -1 -1
 NAtoms=     34 NQM=       34 NQMF=       0 NMMI=      0 NMMIF=      0
                NMic=       0 NMicF=      0.
                    Isotopes and Nuclear Properties:
 (Nuclear quadrupole moments (NQMom) in fm**2, nuclear magnetic moments (NMagM)
  in nuclear magnetons)

  Atom         1           2           3           4           5           6           7           8           9          10
 IAtWgt=          16          16          12           1          16          16          12           1          16          16
 AtmWgt=  15.9949146  15.9949146  12.0000000   1.0078250  15.9949146  15.9949146  12.0000000   1.0078250  15.9949146  15.9949146
 NucSpn=           0           0           0           1           0           0           0           1           0           0
 AtZEff=   5.6000000   5.6000000   3.6000000   1.0000000   5.6000000   5.6000000   3.6000000   1.0000000   5.6000000   5.6000000
 NQMom=    0.0000000   0.0000000   0.0000000   0.0000000   0.0000000   0.0000000   0.0000000   0.0000000   0.0000000   0.0000000
 NMagM=    0.0000000   0.0000000   0.0000000   2.7928460   0.0000000   0.0000000   0.0000000   2.7928460   0.0000000   0.0000000
 AtZNuc=   8.0000000   8.0000000   6.0000000   1.0000000   8.0000000   8.0000000   6.0000000   1.0000000   8.0000000   8.0000000

  Atom        11          12          13          14          15          16          17          18          19          20
 IAtWgt=          16          12           1          16          16          12           1          56          16          56
 AtmWgt=  15.9949146  12.0000000   1.0078250  15.9949146  15.9949146  12.0000000   1.0078250  55.9349393  15.9949146  55.9349393
 NucSpn=           0           0           1           0           0           0           1           0           0           0
 AtZEff=   5.6000000   3.6000000   1.0000000   5.6000000   5.6000000   3.6000000   1.0000000  25.2200000   5.6000000  25.2200000
 NQMom=    0.0000000   0.0000000   0.0000000   0.0000000   0.0000000   0.0000000   0.0000000   0.0000000   0.0000000   0.0000000
 NMagM=    0.0000000   0.0000000   2.7928460   0.0000000   0.0000000   0.0000000   2.7928460   0.0000000   0.0000000   0.0000000
 AtZNuc=   8.0000000   6.0000000   1.0000000   8.0000000   8.0000000   6.0000000   1.0000000  26.0000000   8.0000000  26.0000000

  Atom        21          22          23          24          25          26          27          28          29          30
 IAtWgt=          16          16          56          16          12           1          12           1          14          14
 AtmWgt=  15.9949146  15.9949146  55.9349393  15.9949146  12.0000000   1.0078250  12.0000000   1.0078250  14.0030740  14.0030740
 NucSpn=           0           0           0           0           0           1           0           1           2           2
 AtZEff=   5.6000000   5.6000000  25.2200000   5.6000000   3.6000000   1.0000000   3.6000000   1.0000000   4.5500000   4.5500000
 NQMom=    0.0000000   0.0000000   0.0000000   0.0000000   0.0000000   0.0000000   0.0000000   0.0000000   2.0440000   2.0440000
 NMagM=    0.0000000   0.0000000   0.0000000   0.0000000   0.0000000   2.7928460   0.0000000   2.7928460   0.4037610   0.4037610
 AtZNuc=   8.0000000   8.0000000  26.0000000   8.0000000   6.0000000   1.0000000   6.0000000   1.0000000   7.0000000   7.0000000

  Atom        31          32          33          34
 IAtWgt=          16          16           1           1
 AtmWgt=  15.9949146  15.9949146   1.0078250   1.0078250
 NucSpn=           0           0           1           1
 AtZEff=   5.6000000   5.6000000   1.0000000   1.0000000
 NQMom=    0.0000000   0.0000000   0.0000000   0.0000000
 NMagM=    0.0000000   0.0000000   2.7928460   2.7928460
 AtZNuc=   8.0000000   8.0000000   1.0000000   1.0000000
 Leave Link  101 at Wed Feb 22 01:40:29 2023, MaxMem= 14763950080 cpu:               0.1 elap:               0.1
 (Enter /software/commercial/gaussian/g16/AVX2/g16/l103.exe)

 GradGradGradGradGradGradGradGradGradGradGradGradGradGradGradGradGradGrad
 Berny optimization.
 Initialization pass.
 Trust Radius=3.00D-01 FncErr=1.00D-07 GrdErr=1.00D-07 EigMax=2.50D+02 EigMin=1.00D-04
 Number of steps in this run=      2 maximum allowed number of steps=      2.
 GradGradGradGradGradGradGradGradGradGradGradGradGradGradGradGradGradGrad

 Leave Link  103 at Wed Feb 22 01:40:30 2023, MaxMem= 14763950080 cpu:               0.1 elap:               0.1
 (Enter /software/commercial/gaussian/g16/AVX2/g16/l202.exe)
                          Input orientation:                          
 ---------------------------------------------------------------------
 Center     Atomic      Atomic             Coordinates (Angstroms)
 Number     Number       Type             X           Y           Z
 ---------------------------------------------------------------------
      1          8           0       -0.043318    0.011614   -0.019254
      2          8           0       -0.008489    0.020749    2.234666
      3          6           0        0.519897    0.012031    1.111677
      4          1           0        1.623463    0.006737    1.086666
      5          8           0       -4.927222   -1.618096   -0.466310
      6          8           0       -3.855542    0.218805   -1.198390
      7          6           0       -4.852826   -0.526608   -1.080156
      8          1           0       -5.777923   -0.184788   -1.578069
      9          8           0       -1.372791   -2.207352    3.459471
     10          8           0       -1.734081   -1.614913   -1.576761
     11          8           0       -2.699643   -3.349878   -0.510803
     12          6           0       -2.015888   -2.826554   -1.419924
     13          1           0       -1.611174   -3.519866   -2.177345
     14          8           0       -2.486865    1.652600    2.452551
     15          8           0       -2.201650    1.878095    0.229013
     16          6           0       -2.475465    2.294223    1.390246
     17          1           0       -2.738930    3.364299    1.456644
     18         26           0       -1.865682   -0.206648    3.111964
     19          8           0       -3.817647   -0.611793    3.744034
     20         26           0       -3.681151   -2.432221    1.024923
     21          8           0       -5.105879   -1.846268    2.370244
     22          8           0       -2.805448   -3.569191    2.377797
     23         26           0       -2.014699   -0.033980   -0.316950
     24          8           0       -2.556404   -0.928577    1.198249
     25          6           0       -4.883272   -1.138085    3.394519
     26          1           0       -5.758331   -0.981580    4.050309
     27          6           0       -1.855974   -3.311231    3.173134
     28          1           0       -1.417376   -4.195549    3.667327
     29          7           0       -2.030201   -0.128128    6.007863
     30          7           0       -1.850009    0.054475    7.118625
     31          8           0       -1.324483    0.393364    4.757232
     32          8           0       -5.218985   -3.991238    0.779762
     33          1           0       -5.646524   -3.704147   -0.038697
     34          1           0       -5.821890   -3.700454    1.479531
 ---------------------------------------------------------------------
                    Distance matrix (angstroms):
                    1          2          3          4          5
     1  O    0.000000
     2  O    2.254208   0.000000
     3  C    1.263415   1.241117   0.000000
     4  H    2.000310   1.995336   1.103862   0.000000
     5  O    5.168011   5.845941   5.900717   6.925553   0.000000
     6  O    3.995790   5.159934   4.952134   5.940197   2.249143
     7  C    4.954450   5.895359   5.827557   6.849956   1.254467
     8  H    5.945938   6.918494   6.850986   7.868799   2.003515
     9  O    4.335072   2.885464   3.744338   4.417005   5.328505
    10  O    2.816043   4.492220   3.867178   4.582215   3.380719
    11  O    4.312461   5.112831   4.929535   5.701580   2.821906
    12  C    3.729357   5.049041   4.571299   5.249324   3.293268
    13  H    4.425706   5.879659   5.275739   5.792544   4.188142
    14  O    3.843642   2.975359   3.678318   4.633498   5.017225
    15  O    2.864226   3.504617   3.415862   4.343851   4.487267
    16  C    3.621095   3.459437   3.776002   4.703824   4.976359
    17  H    4.548088   4.386338   4.687927   5.517299   5.771537
    18  Fe   3.629487   2.066525   3.120890   4.039987   4.916224
    19  O    5.366240   4.145839   5.112019   6.086859   4.468870
    20  Fe   4.505161   4.579191   4.861142   5.838772   2.106958
    21  O    5.898386   5.430241   6.056948   7.096847   2.851319
    22  O    5.118338   4.553145   5.048379   5.836911   4.049400
    23  Fe   1.994253   3.246324   2.909857   3.899745   3.318814
    24  O    2.946503   2.909855   3.218053   4.284688   2.977746
    25  C    6.033309   5.143118   5.977321   6.998171   3.890803
    26  H    7.085842   6.112439   7.002783   8.015661   4.636351
    27  C    4.951603   3.923775   4.575854   5.241063   5.054189
    28  H    5.760133   4.670615   5.290378   5.793592   6.004101
    29  N    6.347706   4.283281   5.522253   6.130712   7.247596
    30  N    7.363103   5.219711   6.457683   6.960733   8.354518
    31  O    4.960034   2.869498   4.103318   4.723655   6.656658
    32  O    6.591569   6.735136   7.005076   7.930768   2.696224
    33  H    6.723331   7.129549   7.290959   8.239527   2.247633
    34  H    7.029773   6.943574   7.357726   8.326517   2.987130
                    6          7          8          9         10
     6  O    0.000000
     7  C    1.250679   0.000000
     8  H    2.000648   1.104790   0.000000
     9  O    5.809127   5.961859   6.990906   0.000000
    10  O    2.829537   3.340299   4.289279   5.083813   0.000000
    11  O    3.813709   3.596000   4.542318   4.339237   2.253593
    12  C    3.564774   3.667889   4.599657   4.960392   1.253828
    13  H    4.469138   4.546616   5.370630   5.792513   2.001162
    14  O    4.154325   4.777734   5.518420   4.141773   5.242011
    15  O    2.743370   3.811202   4.506746   5.273875   3.959867
    16  C    3.593467   4.439799   5.085530   5.075605   4.963277
    17  H    4.264993   5.103242   5.571443   6.076262   5.916403
    18  Fe   4.766518   5.157448   6.107578   2.089622   4.897414
    19  O    5.011873   4.934740   5.687688   2.933276   5.801582
    20  Fe   3.464314   3.071733   4.027776   3.362457   3.350796
    21  O    4.308482   3.702809   4.336050   3.905476   5.196286
    22  O    5.314200   5.040487   5.994887   2.253249   4.539334
    23  Fe   2.056584   2.979956   3.971778   4.404197   2.040887
    24  O    2.957722   3.259795   4.317331   2.854704   2.974551
    25  C    4.898182   4.516365   5.141576   3.670290   5.904099
    26  H    5.710549   5.229590   5.684532   4.591794   6.946914
    27  C    5.964029   5.901332   6.908709   1.238549   5.045181
    28  H    7.007593   6.913901   7.912948   1.999529   5.853241
    29  N    7.441929   7.639765   8.461382   3.354051   7.734645
    30  N    8.556980   8.750690   9.545588   4.328164   8.854944
    31  O    6.473497   6.882634   7.765528   2.906930   6.657358
    32  O    4.847321   3.949307   4.512298   5.015606   4.831633
    33  H    4.465652   3.436763   3.843542   5.722095   4.694438
    34  H    5.137935   4.190988   4.659481   5.093526   5.513673
                   11         12         13         14         15
    11  O    0.000000
    12  C    1.252155   0.000000
    13  H    1.997754   1.103703   0.000000
    14  O    5.818207   5.939756   6.996940   0.000000
    15  O    5.303492   4.988710   5.939461   2.253069   0.000000
    16  C    5.959875   5.859233   6.875923   1.241089   1.263566
    17  H    6.996611   6.864699   7.865713   1.996317   2.001137
    18  Fe   4.868246   5.236838   6.246516   2.068211   3.573575
    19  O    5.181764   5.900675   6.956158   2.926838   4.600691
    20  Fe   2.040565   2.984272   3.965135   4.488898   4.626146
    21  O    4.043667   4.987422   5.974483   4.371280   5.185586
    22  O    2.898844   3.949380   4.709356   5.232035   5.886831
    23  Fe   3.391447   3.002503   3.971813   3.276832   1.997263
    24  O    2.967166   3.278613   4.359228   2.870642   2.990431
    25  C    4.991172   5.852494   6.886593   3.797103   5.129217
    26  H    5.980648   6.879918   7.900979   4.493799   5.952313
    27  C    3.779505   4.621328   5.360138   5.055382   5.976325
    28  H    4.451531   5.302121   5.886789   6.067976   7.023264
    29  N    7.302111   7.902767   8.870011   4.002471   6.119595
    30  N    8.397599   9.013027   9.962329   4.973111   7.135545
    31  O    6.607202   7.000226   7.967679   2.871996   4.845474
    32  O    2.902410   4.056469   4.688600   6.489654   6.622440
    33  H    3.005411   3.982396   4.570757   6.699589   6.565078
    34  H    3.719242   4.863764   5.579918   6.381564   6.766842
                   16         17         18         19         20
    16  C    0.000000
    17  H    1.104032   0.000000
    18  Fe   3.096854   4.031664   0.000000
    19  O    3.973248   4.712227   2.091368   0.000000
    20  Fe   4.891463   5.888448   3.550329   3.275080   0.000000
    21  O    5.002313   5.795440   3.706397   2.251837   2.045257
    22  O    5.955146   6.994729   3.567752   3.411357   1.972263
    23  Fe   2.923585   3.901083   3.436490   4.480633   3.213915
    24  O    3.229528   4.304518   2.158838   2.858690   1.885747
    25  C    4.647083   5.350236   3.170687   1.238830   2.955481
    26  H    5.346403   5.893262   4.078447   1.999200   3.946137
    27  C    5.914691   6.949004   3.105201   3.385418   2.952751
    28  H    6.958576   7.986546   4.052250   4.313988   3.900807
    29  N    5.233396   5.780392   2.901631   2.924691   5.732728
    30  N    6.182394   6.618394   4.015192   3.962749   6.831540
    31  O    4.034182   4.660579   1.832981   2.872765   5.240987
    32  O    6.885246   7.791840   5.568386   4.708641   2.203536
    33  H    6.933825   7.788008   6.037708   5.216943   2.571337
    34  H    6.866053   7.708172   5.524771   4.322591   2.529397
                   21         22         23         24         25
    21  O    0.000000
    22  O    2.874109   0.000000
    23  Fe   4.478927   4.514937   0.000000
    24  O    2.952211   2.902792   1.841080   0.000000
    25  C    1.264997   3.355794   4.819000   3.206526   0.000000
    26  H    1.999000   4.267617   5.829724   4.288286   1.104664
    27  C    3.654125   1.265150   4.790225   3.172982   3.733109
    28  H    4.561424   1.995483   5.792228   4.250510   4.629788
    29  N    5.063998   5.061552   6.325532   4.904080   3.998699
    30  N    6.063055   6.043118   7.437924   6.042867   4.948924
    31  O    5.001262   4.853536   5.138710   3.991431   4.106982
    32  O    2.672699   2.925235   5.208658   4.079750   3.884603
    33  H    3.089823   3.732207   5.170851   4.333897   4.353642
    34  H    2.178083   3.150085   5.582570   4.292531   3.333755
                   26         27         28         29         30
    26  H    0.000000
    27  C    4.628726   0.000000
    28  H    5.414809   1.103907   0.000000
    29  N    4.296435   4.265934   4.732607   0.000000
    30  N    5.075722   5.186030   5.491933   1.140002   0.000000
    31  O    4.695660   4.063973   4.717482   1.527766   2.442785
    32  O    4.477211   4.183358   4.778285   7.240511   8.240084
    33  H    4.913740   4.983825   5.644624   7.901050   8.931294
    34  H    3.742355   4.329928   4.942804   6.902479   7.853325
                   31         32         33         34
    31  O    0.000000
    32  O    7.086053   0.000000
    33  H    7.646605   0.966998   0.000000
    34  H    6.908643   0.968363   1.528327   0.000000
 Symmetry turned off by external request.
 Stoichiometry    C6H8Fe3N2O15(15)
 Framework group  C1[X(C6H8Fe3N2O15)]
 Deg. of freedom    96
 Full point group                 C1      NOp   1
 Rotational constants (GHZ):           0.2331023           0.1667795           0.1328916
 Leave Link  202 at Wed Feb 22 01:40:30 2023, MaxMem= 14763950080 cpu:               0.0 elap:               0.1
 (Enter /software/commercial/gaussian/g16/AVX2/g16/l301.exe)
 General basis read from cards:  (5D, 7F)
 Centers:       4      8     13     17     26     28     33     34
 S 3 1.00
     Exponent=  3.4061341000D+01 Coefficients=  6.0251978000D-03
     Exponent=  5.1235746000D+00 Coefficients=  4.5021094000D-02
     Exponent=  1.1646626000D+00 Coefficients=  2.0189726000D-01
 S 1 1.00
     Exponent=  3.2723041000D-01 Coefficients=  1.0000000000D+00
 S 1 1.00
     Exponent=  1.0307241000D-01 Coefficients=  1.0000000000D+00
 P 1 1.00
     Exponent=  8.0000000000D-01 Coefficients=  1.0000000000D+00
 ****
 Centers:       1      2      5      6      9     10     11     14     15     19
 Centers:      21     22     24     31     32
 S 6 1.00
     Exponent=  2.7032382631D+04 Coefficients=  2.1726302465D-04
     Exponent=  4.0523871392D+03 Coefficients=  1.6838662199D-03
     Exponent=  9.2232722710D+02 Coefficients=  8.7395616265D-03
     Exponent=  2.6124070989D+02 Coefficients=  3.5239968808D-02
     Exponent=  8.5354641351D+01 Coefficients=  1.1153519115D-01
     Exponent=  3.1035035245D+01 Coefficients=  2.5588953961D-01
 S 2 1.00
     Exponent=  1.2260860728D+01 Coefficients=  3.9768730901D-01
     Exponent=  4.9987076005D+00 Coefficients=  2.4627849430D-01
 S 1 1.00
     Exponent=  1.1703108158D+00 Coefficients=  1.0000000000D+00
 S 1 1.00
     Exponent=  4.6474740994D-01 Coefficients=  1.0000000000D+00
 S 1 1.00
     Exponent=  1.8504536357D-01 Coefficients=  1.0000000000D+00
 P 4 1.00
     Exponent=  6.3274954801D+01 Coefficients=  6.0685103418D-03
     Exponent=  1.4627049379D+01 Coefficients=  4.1912575824D-02
     Exponent=  4.4501223456D+00 Coefficients=  1.6153841088D-01
     Exponent=  1.5275799647D+00 Coefficients=  3.5706951311D-01
 P 1 1.00
     Exponent=  5.2935117943D-01 Coefficients=  4.4794207502D-01
 P 1 1.00
     Exponent=  1.7478421270D-01 Coefficients=  2.4446069663D-01
 D 1 1.00
     Exponent=  2.3140000000D+00 Coefficients=  1.0000000000D+00
 D 1 1.00
     Exponent=  6.4500000000D-01 Coefficients=  1.0000000000D+00
 F 1 1.00
     Exponent=  1.4280000000D+00 Coefficients=  1.0000000000D+00
 ****
 Centers:       3      7     12     16     25     27
 S 6 1.00
     Exponent=  1.3575349682D+04 Coefficients=  2.2245814352D-04
     Exponent=  2.0352333680D+03 Coefficients=  1.7232738252D-03
     Exponent=  4.6322562359D+02 Coefficients=  8.9255715314D-03
     Exponent=  1.3120019598D+02 Coefficients=  3.5727984502D-02
     Exponent=  4.2853015891D+01 Coefficients=  1.1076259931D-01
     Exponent=  1.5584185766D+01 Coefficients=  2.4295627626D-01
 S 2 1.00
     Exponent=  6.2067138508D+00 Coefficients=  4.1440263448D-01
     Exponent=  2.5764896527D+00 Coefficients=  2.3744968655D-01
 S 1 1.00
     Exponent=  5.7696339419D-01 Coefficients=  1.0000000000D+00
 S 1 1.00
     Exponent=  2.2972831358D-01 Coefficients=  1.0000000000D+00
 S 1 1.00
     Exponent=  9.5164440028D-02 Coefficients=  1.0000000000D+00
 P 4 1.00
     Exponent=  3.4697232244D+01 Coefficients=  5.3333657805D-03
     Exponent=  7.9582622826D+00 Coefficients=  3.5864109092D-02
     Exponent=  2.3780826883D+00 Coefficients=  1.4215873329D-01
     Exponent=  8.1433208183D-01 Coefficients=  3.4270471845D-01
 P 1 1.00
     Exponent=  2.8887547253D-01 Coefficients=  4.6445822433D-01
 P 1 1.00
     Exponent=  1.0056823671D-01 Coefficients=  2.4955789874D-01
 D 1 1.00
     Exponent=  1.0970000000D+00 Coefficients=  1.0000000000D+00
 D 1 1.00
     Exponent=  3.1800000000D-01 Coefficients=  1.0000000000D+00
 F 1 1.00
     Exponent=  7.6100000000D-01 Coefficients=  1.0000000000D+00
 ****
 Centers:      18     20     23
 S 8 1.00
     Exponent=  3.0078484637D+05 Coefficients=  2.2806273096D-04
     Exponent=  4.5088970557D+04 Coefficients=  1.7681788761D-03
     Exponent=  1.0262516317D+04 Coefficients=  9.1927083490D-03
     Exponent=  2.9052897293D+03 Coefficients=  3.7355495807D-02
     Exponent=  9.4611487137D+02 Coefficients=  1.2151108426D-01
     Exponent=  3.3987832894D+02 Coefficients=  2.8818881468D-01
     Exponent=  1.3194425588D+02 Coefficients=  4.1126612677D-01
     Exponent=  5.2111494077D+01 Coefficients=  2.1518583573D-01
 S 4 1.00
     Exponent=  3.2948839267D+02 Coefficients= -2.4745216477D-02
     Exponent=  1.0192332739D+02 Coefficients= -1.1683089050D-01
     Exponent=  1.6240462745D+01 Coefficients=  5.5293621136D-01
     Exponent=  6.8840675801D+00 Coefficients=  5.3601640182D-01
 S 2 1.00
     Exponent=  1.0470693782D+01 Coefficients= -2.2912708577D-01
     Exponent=  1.7360039648D+00 Coefficients=  7.1159319984D-01
 S 1 1.00
     Exponent=  7.2577288979D-01 Coefficients=  1.0000000000D+00
 S 1 1.00
     Exponent=  1.1595528203D-01 Coefficients=  1.0000000000D+00
 S 1 1.00
     Exponent=  4.1968227746D-02 Coefficients=  1.0000000000D+00
 P 6 1.00
     Exponent=  1.5853959970D+03 Coefficients=  2.3793960179D-03
     Exponent=  3.7538006499D+02 Coefficients=  1.9253154755D-02
     Exponent=  1.2031816501D+02 Coefficients=  9.0021836536D-02
     Exponent=  4.4788749031D+01 Coefficients=  2.5798172356D-01
     Exponent=  1.7829278584D+01 Coefficients=  4.1492649744D-01
     Exponent=  7.2247153786D+00 Coefficients=  2.4207474784D-01
 P 3 1.00
     Exponent=  2.8143219756D+01 Coefficients= -2.9041755152D-02
     Exponent=  3.8743241412D+00 Coefficients=  5.5312260343D-01
     Exponent=  1.5410752281D+00 Coefficients=  9.6771136842D-01
 P 1 1.00
     Exponent=  5.8285615250D-01 Coefficients=  1.0000000000D+00
 P 1 1.00
     Exponent=  1.3491500000D-01 Coefficients=  1.0000000000D+00
 D 4 1.00
     Exponent=  6.1996675034D+01 Coefficients=  1.1971972255D-02
     Exponent=  1.7873732552D+01 Coefficients=  7.3210135410D-02
     Exponent=  6.2744782934D+00 Coefficients=  2.3103094314D-01
     Exponent=  2.3552337175D+00 Coefficients=  3.9910706494D-01
 D 1 1.00
     Exponent=  8.5432239901D-01 Coefficients=  4.1391589765D-01
 D 1 1.00
     Exponent=  2.7869254413D-01 Coefficients=  2.1909269782D-01
 D 1 1.00
     Exponent=  9.1000000000D-02 Coefficients=  1.0000000000D+00
 F 1 1.00
     Exponent=  1.5980000000D+00 Coefficients=  1.0000000000D+00
 ****
 Centers:      29     30
 S 6 1.00
     Exponent=  1.9730800647D+04 Coefficients=  2.1887984991D-04
     Exponent=  2.9578958745D+03 Coefficients=  1.6960708803D-03
     Exponent=  6.7322133595D+02 Coefficients=  8.7954603538D-03
     Exponent=  1.9068249494D+02 Coefficients=  3.5359382605D-02
     Exponent=  6.2295441898D+01 Coefficients=  1.1095789217D-01
     Exponent=  2.2654161182D+01 Coefficients=  2.4982972552D-01
 S 2 1.00
     Exponent=  8.9791477428D+00 Coefficients=  4.0623896148D-01
     Exponent=  3.6863002370D+00 Coefficients=  2.4338217176D-01
 S 1 1.00
     Exponent=  8.4660076805D-01 Coefficients=  1.0000000000D+00
 S 1 1.00
     Exponent=  3.3647133771D-01 Coefficients=  1.0000000000D+00
 S 1 1.00
     Exponent=  1.3647653675D-01 Coefficients=  1.0000000000D+00
 P 4 1.00
     Exponent=  4.9200380510D+01 Coefficients=  5.5552416751D-03
     Exponent=  1.1346790537D+01 Coefficients=  3.8052379723D-02
     Exponent=  3.4273972411D+00 Coefficients=  1.4953671029D-01
     Exponent=  1.1785525134D+00 Coefficients=  3.4949305230D-01
 P 1 1.00
     Exponent=  4.1642204972D-01 Coefficients=  4.5843153697D-01
 P 1 1.00
     Exponent=  1.4260826011D-01 Coefficients=  2.4428771672D-01
 D 1 1.00
     Exponent=  1.6540000000D+00 Coefficients=  1.0000000000D+00
 D 1 1.00
     Exponent=  4.6900000000D-01 Coefficients=  1.0000000000D+00
 F 1 1.00
     Exponent=  1.0930000000D+00 Coefficients=  1.0000000000D+00
 ****
 Ernie: Thresh=  0.10000D-02 Tol=  0.10000D-05 Strict=F.
   896 basis functions,  1543 primitive gaussians,  1032 cartesian basis functions
   135 alpha electrons      121 beta electrons
       nuclear repulsion energy      4729.7378882401 Hartrees.
 IExCor= 4134 DFT=T Ex+Corr=M06L ExCW=0 ScaHFX=  0.000000
 ScaDFX=  1.000000  1.000000  1.000000  1.000000 ScalE2=  1.000000  1.000000
 IRadAn=      5 IRanWt=     -1 IRanGd=            0 ICorTp=0 IEmpDi=  4
 NAtoms=   34 NActive=   34 NUniq=   34 SFac= 1.00D+00 NAtFMM=   60 NAOKFM=F Big=F
 Integral buffers will be    131072 words long.
 Raffenetti 2 integral format.
 Two-electron integral symmetry is turned off.
 Leave Link  301 at Wed Feb 22 01:40:30 2023, MaxMem= 14763950080 cpu:               0.1 elap:               0.1
 (Enter /software/commercial/gaussian/g16/AVX2/g16/l302.exe)
 NPDir=0 NMtPBC=     1 NCelOv=     1 NCel=       1 NClECP=     1 NCelD=      1
         NCelK=      1 NCelE2=     1 NClLst=     1 CellRange=     0.0.
 One-electron integrals computed using PRISM.
 NBasis=   896 RedAO= T EigKep=  2.53D-04  NBF=   896
 NBsUse=   896 1.00D-06 EigRej= -1.00D+00 NBFU=   896
 Precomputing XC quadrature grid using
 IXCGrd= 4 IRadAn=           5 IRanWt=          -1 IRanGd=           0 AccXCQ= 0.00D+00.
 Generated NRdTot=       0 NPtTot=           0 NUsed=           0 NTot=          32
 NSgBfM=  1009  1009  1009  1009  1009 MxSgAt=    34 MxSgA2=    34.
 Leave Link  302 at Wed Feb 22 01:40:32 2023, MaxMem= 14763950080 cpu:               2.6 elap:               1.7
 (Enter /software/commercial/gaussian/g16/AVX2/g16/l303.exe)
 DipDrv:  MaxL=1.
 Leave Link  303 at Wed Feb 22 01:40:33 2023, MaxMem= 14763950080 cpu:               0.2 elap:               0.2
 (Enter /software/commercial/gaussian/g16/AVX2/g16/l401.exe)
 Initial guess from the checkpoint file:  "/scratch1/svicchi/G09-176073.pbs02/02-freq/FeFeFe-TS1-2xH2O-QST2-H2O_relax-1xH2O-freq.chk"
 B after Tr=     0.000000    0.000000    0.000000
         Rot=    1.000000    0.000000    0.000000    0.000000 Ang=   0.00 deg.
 Guess basis will be translated and rotated to current coordinates.
 JPrj=2 DoOrth=T DoCkMO=T.
 Initial guess <Sx>= 0.0000 <Sy>= 0.0000 <Sz>= 7.0000 <S**2>=56.6813 S= 7.0453
 Leave Link  401 at Wed Feb 22 01:40:35 2023, MaxMem= 14763950080 cpu:               2.3 elap:               2.1
 (Enter /software/commercial/gaussian/g16/AVX2/g16/l502.exe)
 Two-electron integral symmetry not used.
 UHF open shell SCF:
 Using DIIS extrapolation, IDIIS=  1040.
 NGot= 14763950080 LenX= 14761806542 LenY= 14760740486
 Requested convergence on RMS density matrix=1.00D-08 within 150 cycles.
 Requested convergence on MAX density matrix=1.00D-06.
 Requested convergence on             energy=1.00D-06.
 No special actions if energy rises.
 Fock matrices will be formed incrementally for  20 cycles.

 Cycle   1  Pass 1  IDiag  1:
 FoFJK:  IHMeth= 1 ICntrl=     500 DoSepK=F KAlg= 0 I1Cent=           0 FoldK=F
 IRaf= 760000000 NMat=       1 IRICut=       1 DoRegI=T DoRafI=F ISym2E= 0 IDoP0=0 IntGTp=1.
 FoFCou: FMM=F IPFlag=           0 FMFlag=      100000 FMFlg1=           0
         NFxFlg=           0 DoJE=T BraDBF=F KetDBF=F FulRan=T
         wScrn=  0.000000 ICntrl=       500 IOpCl=  0 I1Cent=           0 NGrid=           0
         NMat0=    1 NMatS0=      1 NMatT0=    0 NMatD0=    1 NMtDS0=    0 NMtDT0=    0
 Symmetry not used in FoFCou.
 E= -5263.22789406343    
 DIIS: error= 2.21D-08 at cycle   1 NSaved=   1.
 NSaved= 1 IEnMin= 1 EnMin= -5263.22789406343     IErMin= 1 ErrMin= 2.21D-08
 ErrMax= 2.21D-08  0.00D+00 EMaxC= 1.00D-01 BMatC= 2.36D-12 BMatP= 2.36D-12
 IDIUse=1 WtCom= 1.00D+00 WtEn= 0.00D+00
 Coeff-Com:  0.100D+01
 Coeff:      0.100D+01
 Gap=     0.084 Goal=   None    Shift=    0.000
 Gap=     0.024 Goal=   None    Shift=    0.000
 RMSDP=4.27D-09 MaxDP=5.02D-07              OVMax= 4.49D-06

 SCF Done:  E(UM06L) =  -5263.22789406     A.U. after    1 cycles
            NFock=  1  Conv=0.43D-08     -V/T= 2.0017
 <Sx>= 0.0000 <Sy>= 0.0000 <Sz>= 7.0000 <S**2>=56.6813 S= 7.0453
 <L.S>=  0.00000000000    
 KE= 5.254361716601D+03 PE=-2.194954994683D+04 EE= 6.702222447923D+03
 Annihilation of the first spin contaminant:
 S**2 before annihilation    56.6813,   after    56.0057
 Leave Link  502 at Wed Feb 22 01:44:05 2023, MaxMem= 14763950080 cpu:             415.1 elap:             209.3
 (Enter /software/commercial/gaussian/g16/AVX2/g16/l508.exe)
 QCSCF skips out because SCF is already converged.
 Leave Link  508 at Wed Feb 22 01:44:05 2023, MaxMem= 14763950080 cpu:               0.0 elap:               0.0
 (Enter /software/commercial/gaussian/g16/AVX2/g16/l801.exe)
 DoSCS=F DFT=T ScalE2(SS,OS)=  1.000000  1.000000
 Range of M.O.s used for correlation:     1   896
 NBasis=   896 NAE=   135 NBE=   121 NFC=     0 NFV=     0
 NROrb=    896 NOA=   135 NOB=   121 NVA=   761 NVB=   775

 **** Warning!!: The largest alpha MO coefficient is  0.15807708D+02


 **** Warning!!: The smallest alpha delta epsilon is  0.84138867D-01


 **** Warning!!: The largest beta MO coefficient is  0.12211471D+02


 **** Warning!!: The smallest beta delta epsilon is  0.23830168D-01

 Leave Link  801 at Wed Feb 22 01:44:05 2023, MaxMem= 14763950080 cpu:               0.1 elap:               0.1
 (Enter /software/commercial/gaussian/g16/AVX2/g16/l1002.exe)
 Minotr:  UHF open shell wavefunction.
          Direct CPHF calculation.
          Differentiating once with respect to electric field.
                with respect to dipole field.
          Electric field/nuclear overlap derivatives assumed to be zero.
          Requested convergence is 1.0D-08 RMS, and 1.0D-07 maximum.
          Secondary convergence is 1.0D-12 RMS, and 1.0D-12 maximum.
          NewPWx=F KeepS1=T KeepF1=T KeepIn=T MapXYZ=F SortEE=F KeepMc=T.
        10455 words used for storage of precomputed grid.
 Two-electron integral symmetry not used.
          MDV=   14763950080 using IRadAn=       1.
          Solving linear equations simultaneously, MaxMat=     384.
          There are     3 degrees of freedom in the 1st order CPHF.  IDoFFX=0 NUNeed=     3.
      3 vectors produced by pass  0 Test12= 6.55D-12 3.33D-08 XBig12= 3.87D+03 3.24D+01.
 AX will form     3 AO Fock derivatives at one time.
 FoFJK:  IHMeth= 1 ICntrl=     500 DoSepK=F KAlg= 0 I1Cent=           0 FoldK=F
 IRaf= 760000000 NMat=       3 IRICut=       1 DoRegI=T DoRafI=F ISym2E= 0 IDoP0=0 IntGTp=1.
 FoFCou: FMM=F IPFlag=           0 FMFlag=      100000 FMFlg1=           0
         NFxFlg=           0 DoJE=T BraDBF=F KetDBF=F FulRan=T
         wScrn=  0.000000 ICntrl=       500 IOpCl=  0 I1Cent=           0 NGrid=           0
         NMat0=    3 NMatS0=      3 NMatT0=    0 NMatD0=    3 NMtDS0=    0 NMtDT0=    0
 Symmetry not used in FoFCou.
      3 vectors produced by pass  1 Test12= 6.55D-12 3.33D-08 XBig12= 1.15D+04 4.16D+01.
      3 vectors produced by pass  2 Test12= 6.55D-12 3.33D-08 XBig12= 1.41D+04 1.83D+01.
      3 vectors produced by pass  3 Test12= 6.55D-12 3.33D-08 XBig12= 2.64D+04 4.28D+01.
      3 vectors produced by pass  4 Test12= 6.55D-12 3.33D-08 XBig12= 2.41D+04 2.29D+01.
      3 vectors produced by pass  5 Test12= 6.55D-12 3.33D-08 XBig12= 3.18D+04 2.92D+01.
      3 vectors produced by pass  6 Test12= 6.55D-12 3.33D-08 XBig12= 2.09D+04 2.55D+01.
      3 vectors produced by pass  7 Test12= 6.55D-12 3.33D-08 XBig12= 1.33D+04 2.19D+01.
      3 vectors produced by pass  8 Test12= 6.55D-12 3.33D-08 XBig12= 5.27D+03 1.27D+01.
      3 vectors produced by pass  9 Test12= 6.55D-12 3.33D-08 XBig12= 4.30D+03 9.21D+00.
      3 vectors produced by pass 10 Test12= 6.55D-12 3.33D-08 XBig12= 2.40D+03 5.99D+00.
      3 vectors produced by pass 11 Test12= 6.55D-12 3.33D-08 XBig12= 1.48D+03 5.48D+00.
      3 vectors produced by pass 12 Test12= 6.55D-12 3.33D-08 XBig12= 8.43D+02 5.68D+00.
      3 vectors produced by pass 13 Test12= 6.55D-12 3.33D-08 XBig12= 4.10D+02 3.21D+00.
      3 vectors produced by pass 14 Test12= 6.55D-12 3.33D-08 XBig12= 1.88D+02 2.05D+00.
      3 vectors produced by pass 15 Test12= 6.55D-12 3.33D-08 XBig12= 4.91D+01 8.78D-01.
      3 vectors produced by pass 16 Test12= 6.55D-12 3.33D-08 XBig12= 2.53D+01 8.62D-01.
      3 vectors produced by pass 17 Test12= 6.55D-12 3.33D-08 XBig12= 1.14D+01 5.86D-01.
      3 vectors produced by pass 18 Test12= 6.55D-12 3.33D-08 XBig12= 2.00D+00 2.78D-01.
      3 vectors produced by pass 19 Test12= 6.55D-12 3.33D-08 XBig12= 1.87D-01 6.62D-02.
      3 vectors produced by pass 20 Test12= 6.55D-12 3.33D-08 XBig12= 1.93D-02 2.21D-02.
      3 vectors produced by pass 21 Test12= 6.55D-12 3.33D-08 XBig12= 2.13D-03 4.73D-03.
      3 vectors produced by pass 22 Test12= 6.55D-12 3.33D-08 XBig12= 3.08D-04 1.33D-03.
      3 vectors produced by pass 23 Test12= 6.55D-12 3.33D-08 XBig12= 4.19D-05 5.26D-04.
      3 vectors produced by pass 24 Test12= 6.55D-12 3.33D-08 XBig12= 3.63D-06 1.71D-04.
      3 vectors produced by pass 25 Test12= 6.55D-12 3.33D-08 XBig12= 3.38D-07 5.21D-05.
      3 vectors produced by pass 26 Test12= 6.55D-12 3.33D-08 XBig12= 2.80D-08 1.75D-05.
      3 vectors produced by pass 27 Test12= 6.55D-12 3.33D-08 XBig12= 2.47D-09 5.57D-06.
      3 vectors produced by pass 28 Test12= 6.55D-12 3.33D-08 XBig12= 2.13D-10 1.28D-06.
      3 vectors produced by pass 29 Test12= 6.55D-12 3.33D-08 XBig12= 1.46D-11 3.82D-07.
      1 vectors produced by pass 30 Test12= 6.55D-12 3.33D-08 XBig12= 1.20D-12 1.16D-07.
 InvSVY:  IOpt=1 It=  1 EMax= 1.45D-14
 Solved reduced A of dimension    91 with     3 vectors.
 End of Minotr F.D. properties file   721 does not exist.
 End of Minotr F.D. properties file   722 does not exist.
 End of Minotr F.D. properties file   788 does not exist.
 Leave Link 1002 at Wed Feb 22 04:05:22 2023, MaxMem= 14763950080 cpu:           16883.2 elap:            8476.8
 (Enter /software/commercial/gaussian/g16/AVX2/g16/l1101.exe)
 Using compressed storage, NAtomX=    34.
 Will process     35 centers per pass.
 Leave Link 1101 at Wed Feb 22 04:05:26 2023, MaxMem= 14763950080 cpu:               3.5 elap:               2.8
 (Enter /software/commercial/gaussian/g16/AVX2/g16/l1102.exe)
 Symmetrizing basis deriv contribution to polar:
 IMax=3 JMax=2 DiffMx= 0.00D+00
 Leave Link 1102 at Wed Feb 22 04:05:26 2023, MaxMem= 14763950080 cpu:               0.2 elap:               0.2
 (Enter /software/commercial/gaussian/g16/AVX2/g16/l1110.exe)
 Forming Gx(P) for the SCF density, NAtomX=    34.
 Integral derivatives from FoFJK, PRISM(SPDF).
 Do as many integral derivatives as possible in FoFJK.
 G2DrvN: MDV=   14763946306.
 G2DrvN: will do    35 centers at a time, making    1 passes.
 PxScal for G2LodP:  IOpCl= 1 ISclPx=1 IMOff=     1 NMtTot=     4 NTT=  401856 ScalPx= 2.24D+00
 Calling FoFCou, ICntrl=  3507 FMM=F I1Cent=   0 AccDes= 0.00D+00.
 FoFJK:  IHMeth= 1 ICntrl=    3507 DoSepK=F KAlg= 0 I1Cent=           0 FoldK=F
 IRaf=         0 NMat=       1 IRICut=       1 DoRegI=T DoRafI=F ISym2E= 0 IDoP0=0 IntGTp=1.
 FoFCou: FMM=F IPFlag=           0 FMFlag=      100000 FMFlg1=           0
         NFxFlg=           0 DoJE=F BraDBF=F KetDBF=F FulRan=T
         wScrn=  0.000000 ICntrl=      3507 IOpCl=  0 I1Cent=           0 NGrid=           0
         NMat0=    1 NMatS0=      1 NMatT0=    0 NMatD0=    4 NMtDS0=    3 NMtDT0=    0
 Symmetry not used in FoFCou.
 End of G2Drv F.D. properties file   721 does not exist.
 End of G2Drv F.D. properties file   722 does not exist.
 End of G2Drv F.D. properties file   788 does not exist.
 Leave Link 1110 at Wed Feb 22 06:21:46 2023, MaxMem= 14763950080 cpu:           16312.4 elap:            8179.6
 (Enter /software/commercial/gaussian/g16/AVX2/g16/l1002.exe)
 Minotr:  UHF open shell wavefunction.
          IDoAtm=1111111111111111111111111111111111
          Direct CPHF calculation.
          Differentiating once with respect to electric field.
                with respect to dipole field.
          Differentiating once with respect to nuclear coordinates.
          Requested convergence is 1.0D-08 RMS, and 1.0D-07 maximum.
          Secondary convergence is 1.0D-12 RMS, and 1.0D-12 maximum.
          NewPWx=T KeepS1=F KeepF1=F KeepIn=T MapXYZ=F SortEE=F KeepMc=T.
        10455 words used for storage of precomputed grid.
 Two-electron integral symmetry not used.
          MDV=   14763950080 using IRadAn=       1.
          Solving linear equations simultaneously, MaxMat=     384.
 FoF2E skips out because all densities are zero.
 CalDSu exits because no D1Ps are significant.
 FoFJK:  IHMeth= 1 ICntrl=     500 DoSepK=F KAlg= 0 I1Cent=           0 FoldK=F
 IRaf= 760000000 NMat=     102 IRICut=       1 DoRegI=T DoRafI=F ISym2E= 0 IDoP0=3 IntGTp=3.
 FoFCou: FMM=F IPFlag=           0 FMFlag=      100000 FMFlg1=           0
         NFxFlg=           0 DoJE=F BraDBF=F KetDBF=F FulRan=T
         wScrn=  0.000000 ICntrl=       500 IOpCl=  0 I1Cent=           0 NGrid=           0
         NMat0=  102 NMatS0=    102 NMatT0=    0 NMatD0=  102 NMtDS0=    0 NMtDT0=    0
 Symmetry not used in FoFCou.
          There are   105 degrees of freedom in the 1st order CPHF.  IDoFFX=5 NUNeed=   105.
 Will reuse    3 saved solutions.
     99 vectors produced by pass  0 Test12= 1.97D-13 1.00D-09 XBig12= 9.66D-01 4.18D-01.
 AX will form    99 AO Fock derivatives at one time.
     99 vectors produced by pass  1 Test12= 1.97D-13 1.00D-09 XBig12= 2.67D-01 7.64D-02.
     99 vectors produced by pass  2 Test12= 1.97D-13 1.00D-09 XBig12= 3.75D-03 7.38D-03.
     99 vectors produced by pass  3 Test12= 1.97D-13 1.00D-09 XBig12= 1.24D-04 1.36D-03.
     99 vectors produced by pass  4 Test12= 1.97D-13 1.00D-09 XBig12= 3.16D-06 2.01D-04.
     99 vectors produced by pass  5 Test12= 1.97D-13 1.00D-09 XBig12= 4.88D-08 1.95D-05.
     99 vectors produced by pass  6 Test12= 1.97D-13 1.00D-09 XBig12= 4.47D-10 1.26D-06.
     93 vectors produced by pass  7 Test12= 1.97D-13 1.00D-09 XBig12= 3.94D-12 9.50D-08.
     26 vectors produced by pass  8 Test12= 1.97D-13 1.00D-09 XBig12= 2.78D-14 6.97D-09.
 InvSVY:  IOpt=1 It=  1 EMax= 7.77D-16
 Solved reduced A of dimension   812 with   105 vectors.
 FullF1:  Do perturbations      1 to       3.
 Isotropic polarizability for W=    0.000000      255.46 Bohr**3.
 FullF1:  Do perturbations      1 to       6.
 End of Minotr F.D. properties file   721 does not exist.
 End of Minotr F.D. properties file   722 does not exist.
 End of Minotr F.D. properties file   788 does not exist.
 Leave Link 1002 at Wed Feb 22 11:38:54 2023, MaxMem= 14763950080 cpu:           37859.4 elap:           19026.7
 (Enter /software/commercial/gaussian/g16/AVX2/g16/l601.exe)
 Copying SCF densities to generalized density rwf, IOpCl= 1 IROHF=0.

 **********************************************************************

            Population analysis using the SCF Density.

 **********************************************************************

 Alpha  occ. eigenvalues -- -255.65519-255.65027-255.62950 -30.10608 -30.09994
 Alpha  occ. eigenvalues --  -30.07623 -25.87686 -25.87623 -25.87536 -25.87153
 Alpha  occ. eigenvalues --  -25.86982 -25.86978 -25.85138 -25.84702 -25.84241
 Alpha  occ. eigenvalues --  -19.02712 -18.99792 -18.99269 -18.99116 -18.98992
 Alpha  occ. eigenvalues --  -18.98942 -18.98939 -18.98907 -18.98895 -18.98819
 Alpha  occ. eigenvalues --  -18.98310 -18.98305 -18.98217 -18.98203 -18.97149
 Alpha  occ. eigenvalues --  -14.29449 -14.23980 -10.19020 -10.18911 -10.18572
 Alpha  occ. eigenvalues --  -10.18403 -10.18397 -10.18338  -3.67459  -3.66761
 Alpha  occ. eigenvalues --   -3.64379  -2.41544  -2.41410  -2.41284  -2.40976
 Alpha  occ. eigenvalues --   -2.40634  -2.40613  -2.39275  -2.38376  -2.37471
 Alpha  occ. eigenvalues --   -1.07869  -1.07372  -1.07287  -1.07166  -1.06927
 Alpha  occ. eigenvalues --   -1.06848  -1.05166  -1.04906  -1.00031  -0.99591
 Alpha  occ. eigenvalues --   -0.99578  -0.99330  -0.99254  -0.99131  -0.93944
 Alpha  occ. eigenvalues --   -0.90984  -0.60433  -0.59325  -0.59154  -0.59011
 Alpha  occ. eigenvalues --   -0.58834  -0.58663  -0.54978  -0.54967  -0.50458
 Alpha  occ. eigenvalues --   -0.50248  -0.50000  -0.49136  -0.49042  -0.48588
 Alpha  occ. eigenvalues --   -0.48338  -0.48091  -0.47987  -0.47533  -0.47260
 Alpha  occ. eigenvalues --   -0.47008  -0.46059  -0.45128  -0.44562  -0.43842
 Alpha  occ. eigenvalues --   -0.43498  -0.43195  -0.42840  -0.42179  -0.41732
 Alpha  occ. eigenvalues --   -0.41560  -0.41392  -0.40642  -0.40258  -0.40025
 Alpha  occ. eigenvalues --   -0.39493  -0.39434  -0.39257  -0.38699  -0.38647
 Alpha  occ. eigenvalues --   -0.38370  -0.37812  -0.37647  -0.37245  -0.36466
 Alpha  occ. eigenvalues --   -0.34758  -0.33959  -0.33622  -0.33301  -0.30923
 Alpha  occ. eigenvalues --   -0.30374  -0.30343  -0.30172  -0.29970  -0.29749
 Alpha  occ. eigenvalues --   -0.29646  -0.29533  -0.29367  -0.28643  -0.28565
 Alpha  occ. eigenvalues --   -0.27962  -0.27835  -0.26308  -0.26178  -0.26071
 Alpha  occ. eigenvalues --   -0.25941  -0.23962  -0.23782  -0.23465  -0.22431
 Alpha virt. eigenvalues --   -0.14017  -0.04641  -0.04349  -0.03967  -0.03800
 Alpha virt. eigenvalues --   -0.03572  -0.02998  -0.02719   0.01418   0.02376
 Alpha virt. eigenvalues --    0.05353   0.06485   0.06743   0.07324   0.08047
 Alpha virt. eigenvalues --    0.08184   0.08460   0.08833   0.09037   0.09853
 Alpha virt. eigenvalues --    0.10510   0.12341   0.13776   0.13986   0.15162
 Alpha virt. eigenvalues --    0.15795   0.16214   0.16519   0.17432   0.18174
 Alpha virt. eigenvalues --    0.18599   0.20878   0.21295   0.21485   0.21937
 Alpha virt. eigenvalues --    0.22351   0.22418   0.23016   0.23819   0.24424
 Alpha virt. eigenvalues --    0.24825   0.25336   0.25906   0.26718   0.27360
 Alpha virt. eigenvalues --    0.27838   0.28045   0.28824   0.29204   0.29604
 Alpha virt. eigenvalues --    0.29987   0.30062   0.30387   0.30498   0.31121
 Alpha virt. eigenvalues --    0.31367   0.31688   0.32787   0.33386   0.33913
 Alpha virt. eigenvalues --    0.34023   0.34735   0.35098   0.35581   0.35996
 Alpha virt. eigenvalues --    0.36880   0.37370   0.37623   0.37924   0.38277
 Alpha virt. eigenvalues --    0.38650   0.39018   0.39500   0.39578   0.40030
 Alpha virt. eigenvalues --    0.40142   0.40397   0.40767   0.41184   0.41816
 Alpha virt. eigenvalues --    0.42320   0.42733   0.42950   0.43723   0.44085
 Alpha virt. eigenvalues --    0.44440   0.44866   0.46156   0.47389   0.47542
 Alpha virt. eigenvalues --    0.48231   0.48572   0.49905   0.50185   0.50894
 Alpha virt. eigenvalues --    0.51168   0.51586   0.52288   0.53268   0.53641
 Alpha virt. eigenvalues --    0.53978   0.54231   0.54633   0.55166   0.55560
 Alpha virt. eigenvalues --    0.56417   0.57299   0.58029   0.58341   0.59276
 Alpha virt. eigenvalues --    0.59810   0.60619   0.61110   0.62287   0.62851
 Alpha virt. eigenvalues --    0.63519   0.64415   0.65347   0.65949   0.66282
 Alpha virt. eigenvalues --    0.66884   0.67670   0.68777   0.68983   0.69455
 Alpha virt. eigenvalues --    0.69568   0.70214   0.70453   0.70770   0.71255
 Alpha virt. eigenvalues --    0.71931   0.72493   0.72844   0.72959   0.73634
 Alpha virt. eigenvalues --    0.73907   0.74282   0.74838   0.75243   0.75960
 Alpha virt. eigenvalues --    0.76521   0.76939   0.77694   0.78307   0.79409
 Alpha virt. eigenvalues --    0.80505   0.81117   0.81388   0.82061   0.82729
 Alpha virt. eigenvalues --    0.84397   0.85134   0.85989   0.86976   0.87229
 Alpha virt. eigenvalues --    0.88663   0.89452   0.90088   0.90422   0.90781
 Alpha virt. eigenvalues --    0.91818   0.92642   0.93204   0.93679   0.94217
 Alpha virt. eigenvalues --    0.94941   0.95143   0.96409   0.97240   0.97744
 Alpha virt. eigenvalues --    0.98074   0.98453   0.99724   1.00664   1.00955
 Alpha virt. eigenvalues --    1.01493   1.02185   1.02874   1.03585   1.03762
 Alpha virt. eigenvalues --    1.04979   1.05766   1.06335   1.07066   1.07558
 Alpha virt. eigenvalues --    1.08015   1.08722   1.08990   1.09487   1.10844
 Alpha virt. eigenvalues --    1.12242   1.12910   1.15944   1.17806   1.19015
 Alpha virt. eigenvalues --    1.20952   1.21357   1.22254   1.22944   1.23389
 Alpha virt. eigenvalues --    1.24711   1.25105   1.25571   1.26060   1.26491
 Alpha virt. eigenvalues --    1.28117   1.28441   1.30986   1.31598   1.33049
 Alpha virt. eigenvalues --    1.35038   1.36275   1.37495   1.38907   1.39336
 Alpha virt. eigenvalues --    1.40441   1.41268   1.41423   1.42361   1.43477
 Alpha virt. eigenvalues --    1.43916   1.44894   1.46104   1.46522   1.47231
 Alpha virt. eigenvalues --    1.48295   1.48974   1.49396   1.50730   1.51599
 Alpha virt. eigenvalues --    1.51815   1.52226   1.53801   1.54486   1.54834
 Alpha virt. eigenvalues --    1.55906   1.57432   1.57994   1.59167   1.59363
 Alpha virt. eigenvalues --    1.59886   1.60736   1.61677   1.62332   1.63506
 Alpha virt. eigenvalues --    1.64202   1.64438   1.65816   1.66816   1.67807
 Alpha virt. eigenvalues --    1.68346   1.69688   1.70525   1.70992   1.71591
 Alpha virt. eigenvalues --    1.72883   1.73777   1.75399   1.76323   1.76881
 Alpha virt. eigenvalues --    1.78650   1.79222   1.80506   1.81121   1.82817
 Alpha virt. eigenvalues --    1.83759   1.86248   1.86330   1.87026   1.87385
 Alpha virt. eigenvalues --    1.87898   1.88704   1.89281   1.89875   1.90430
 Alpha virt. eigenvalues --    1.90956   1.92496   1.93108   1.93257   1.94464
 Alpha virt. eigenvalues --    1.95148   1.95448   1.96509   1.96981   1.98213
 Alpha virt. eigenvalues --    1.98432   1.99203   1.99772   2.00740   2.02165
 Alpha virt. eigenvalues --    2.02676   2.02808   2.04231   2.04720   2.05664
 Alpha virt. eigenvalues --    2.07462   2.07609   2.07963   2.09202   2.09652
 Alpha virt. eigenvalues --    2.10250   2.10495   2.11107   2.11455   2.11969
 Alpha virt. eigenvalues --    2.12267   2.12824   2.14353   2.14601   2.15240
 Alpha virt. eigenvalues --    2.15656   2.16854   2.17049   2.17385   2.18427
 Alpha virt. eigenvalues --    2.19347   2.19976   2.20585   2.21630   2.22182
 Alpha virt. eigenvalues --    2.22428   2.22683   2.23662   2.24317   2.25461
 Alpha virt. eigenvalues --    2.26260   2.26923   2.28381   2.29022   2.30655
 Alpha virt. eigenvalues --    2.32264   2.33556   2.35009   2.35661   2.37268
 Alpha virt. eigenvalues --    2.38728   2.39634   2.41756   2.43622   2.44829
 Alpha virt. eigenvalues --    2.45384   2.46989   2.47814   2.48128   2.49797
 Alpha virt. eigenvalues --    2.53295   2.54497   2.55381   2.56180   2.56801
 Alpha virt. eigenvalues --    2.57924   2.58322   2.62379   2.63737   2.64123
 Alpha virt. eigenvalues --    2.65351   2.66434   2.66967   2.67433   2.68198
 Alpha virt. eigenvalues --    2.69382   2.69626   2.70692   2.72169   2.72711
 Alpha virt. eigenvalues --    2.73496   2.74819   2.76991   2.77573   2.80684
 Alpha virt. eigenvalues --    2.80878   2.81778   2.82247   2.84197   2.85657
 Alpha virt. eigenvalues --    2.86597   2.89178   2.90678   2.92232   2.94221
 Alpha virt. eigenvalues --    2.94623   2.94834   2.95353   2.97094   2.97481
 Alpha virt. eigenvalues --    2.97933   2.98812   2.99513   3.00745   3.01766
 Alpha virt. eigenvalues --    3.01874   3.02225   3.03414   3.03719   3.05054
 Alpha virt. eigenvalues --    3.05574   3.06296   3.07257   3.07440   3.08449
 Alpha virt. eigenvalues --    3.08726   3.09119   3.10439   3.11726   3.12020
 Alpha virt. eigenvalues --    3.12944   3.13480   3.13924   3.14413   3.14784
 Alpha virt. eigenvalues --    3.15054   3.15619   3.15829   3.16003   3.16762
 Alpha virt. eigenvalues --    3.16838   3.17669   3.19465   3.20802   3.21642
 Alpha virt. eigenvalues --    3.22075   3.23230   3.23910   3.24451   3.26401
 Alpha virt. eigenvalues --    3.27309   3.28489   3.28935   3.29429   3.30485
 Alpha virt. eigenvalues --    3.30784   3.31612   3.33217   3.35186   3.37371
 Alpha virt. eigenvalues --    3.38284   3.40671   3.41591   3.42027   3.43113
 Alpha virt. eigenvalues --    3.43325   3.44199   3.44316   3.45003   3.45729
 Alpha virt. eigenvalues --    3.46204   3.46877   3.48010   3.48427   3.48889
 Alpha virt. eigenvalues --    3.49415   3.49894   3.50430   3.51354   3.51648
 Alpha virt. eigenvalues --    3.52796   3.53215   3.57191   3.58529   3.59453
 Alpha virt. eigenvalues --    3.60078   3.60324   3.60690   3.61176   3.61265
 Alpha virt. eigenvalues --    3.61930   3.63709   3.64033   3.64547   3.65196
 Alpha virt. eigenvalues --    3.68536   3.68980   3.70638   3.71283   3.71821
 Alpha virt. eigenvalues --    3.73240   3.74340   3.76639   3.78323   3.78623
 Alpha virt. eigenvalues --    3.79538   3.79635   3.80159   3.81184   3.81219
 Alpha virt. eigenvalues --    3.82449   3.83798   3.83922   3.86536   3.86870
 Alpha virt. eigenvalues --    3.89032   3.89658   3.90426   3.91172   3.91693
 Alpha virt. eigenvalues --    3.92281   3.93110   3.93596   3.94088   3.94546
 Alpha virt. eigenvalues --    3.95121   3.96137   3.96748   3.98173   3.99824
 Alpha virt. eigenvalues --    4.00615   4.03184   4.03706   4.05525   4.05983
 Alpha virt. eigenvalues --    4.07563   4.11244   4.13763   4.14554   4.15296
 Alpha virt. eigenvalues --    4.15669   4.16386   4.16984   4.18363   4.19506
 Alpha virt. eigenvalues --    4.20173   4.21488   4.22264   4.23103   4.24028
 Alpha virt. eigenvalues --    4.24817   4.25747   4.26429   4.27226   4.29493
 Alpha virt. eigenvalues --    4.42212   4.44519   4.46427   4.46967   4.47223
 Alpha virt. eigenvalues --    4.48080   4.48223   4.50101   4.50989   4.52943
 Alpha virt. eigenvalues --    4.53006   4.55019   4.56954   4.57485   4.62666
 Alpha virt. eigenvalues --    4.64287   4.67884   4.71259   4.79077   4.86682
 Alpha virt. eigenvalues --    4.95523   5.06156   5.10055   5.14869   5.17251
 Alpha virt. eigenvalues --    5.22923   5.23056   5.23285   5.23383   5.23980
 Alpha virt. eigenvalues --    5.24136   5.24417   5.24549   5.24911   5.25232
 Alpha virt. eigenvalues --    5.25357   5.25465   5.25735   5.26220   5.26412
 Alpha virt. eigenvalues --    5.26583   5.27358   5.27902   5.28446   5.28825
 Alpha virt. eigenvalues --    5.29342   5.30121   5.30342   5.30722   5.31353
 Alpha virt. eigenvalues --    5.32034   5.32334   5.32550   5.32952   5.33658
 Alpha virt. eigenvalues --    5.34923   5.36176   5.37090   5.39135   5.40221
 Alpha virt. eigenvalues --    5.41579   5.42849   5.43420   5.46071   5.47389
 Alpha virt. eigenvalues --    5.47800   5.48481   5.49218   5.52502   5.53444
 Alpha virt. eigenvalues --    5.57765   5.58061   5.58430   5.58813   5.59211
 Alpha virt. eigenvalues --    5.60289   5.60915   5.61336   5.62511   5.62803
 Alpha virt. eigenvalues --    5.64010   5.65686   5.68155   5.68676   5.68920
 Alpha virt. eigenvalues --    5.69249   5.69472   5.69917   5.70969   5.80131
 Alpha virt. eigenvalues --    5.87242   5.88537   5.89438   5.91761   5.92920
 Alpha virt. eigenvalues --    5.93622   6.05242   6.06228   6.06588   6.08786
 Alpha virt. eigenvalues --    6.09278   6.09531   6.10734   6.11207   6.15404
 Alpha virt. eigenvalues --    6.15904   6.16032   6.16444   6.16927   6.17644
 Alpha virt. eigenvalues --    6.18746   6.19270   6.20451   6.21110   6.22443
 Alpha virt. eigenvalues --    6.26751   6.29175   6.30683   6.36383   6.40783
 Alpha virt. eigenvalues --    6.41862   6.42396   6.44285   6.45818   6.46371
 Alpha virt. eigenvalues --    6.47725   6.48273   6.48573   6.48874   6.48976
 Alpha virt. eigenvalues --    6.49339   6.50926   6.52996   6.53529   6.54174
 Alpha virt. eigenvalues --    6.55049   6.55616   6.55883   6.56740   6.57897
 Alpha virt. eigenvalues --    6.58377   6.59930   6.61418   6.62114   6.62728
 Alpha virt. eigenvalues --    6.63402   6.64352   6.64817   6.66314   6.67031
 Alpha virt. eigenvalues --    6.67473   6.69604   6.70504   6.71523   6.72153
 Alpha virt. eigenvalues --    6.73513   6.74674   6.76619   6.77178   6.80209
 Alpha virt. eigenvalues --    6.83062   6.84042   6.85046   6.85301   6.87208
 Alpha virt. eigenvalues --    6.88469   6.89110   6.89394   6.90262   6.90449
 Alpha virt. eigenvalues --    6.91212   6.92339   6.93834   6.96605   6.97361
 Alpha virt. eigenvalues --    6.97544   6.98258   6.99302   7.02965   7.04327
 Alpha virt. eigenvalues --    7.05211   7.05517   7.06275   7.08219   7.08955
 Alpha virt. eigenvalues --    7.10967   7.12109   7.12868   7.13485   7.22213
 Alpha virt. eigenvalues --    7.22707   7.23150   7.24043   7.25204   7.25879
 Alpha virt. eigenvalues --    7.26182   7.26856   7.27840   7.28026   7.28956
 Alpha virt. eigenvalues --    7.29533   7.32013   7.32643   7.33972   7.36666
 Alpha virt. eigenvalues --    7.38544   7.43496   7.61049  23.20696  23.21284
 Alpha virt. eigenvalues --   23.22209  23.22417  23.22551  23.25182  31.61682
 Alpha virt. eigenvalues --   32.25905  43.68613  43.80037  43.85244  43.89369
 Alpha virt. eigenvalues --   43.92756  43.94696  43.96373  44.09101  44.12495
 Alpha virt. eigenvalues --   44.14383  44.16718  44.19485  44.21377  44.29129
 Alpha virt. eigenvalues --   44.31309
  Beta  occ. eigenvalues -- -255.65345-255.64843-255.62780 -29.98844 -29.98476
  Beta  occ. eigenvalues --  -29.96199 -25.79044 -25.79020 -25.78964 -25.78692
  Beta  occ. eigenvalues --  -25.78584 -25.78528 -25.76496 -25.76392 -25.76124
  Beta  occ. eigenvalues --  -19.02539 -18.99910 -18.98955 -18.98786 -18.98698
  Beta  occ. eigenvalues --  -18.98664 -18.98606 -18.98532 -18.98494 -18.98455
  Beta  occ. eigenvalues --  -18.98032 -18.98018 -18.97913 -18.97907 -18.95290
  Beta  occ. eigenvalues --  -14.29861 -14.24522 -10.19022 -10.18914 -10.18567
  Beta  occ. eigenvalues --  -10.18403 -10.18391 -10.18335  -3.42294  -3.42164
  Beta  occ. eigenvalues --   -3.39978  -2.16909  -2.16729  -2.16675  -2.16650
  Beta  occ. eigenvalues --   -2.16419  -2.16385  -2.14528  -2.14458  -2.14151
  Beta  occ. eigenvalues --   -1.07238  -1.06748  -1.06662  -1.06498  -1.06414
  Beta  occ. eigenvalues --   -1.06230  -1.06163  -1.04549  -0.99265  -0.98853
  Beta  occ. eigenvalues --   -0.98788  -0.98549  -0.98412  -0.98314  -0.93338
  Beta  occ. eigenvalues --   -0.88809  -0.59669  -0.58701  -0.58455  -0.58358
  Beta  occ. eigenvalues --   -0.57982  -0.57799  -0.56678  -0.54648  -0.49246
  Beta  occ. eigenvalues --   -0.48932  -0.47952  -0.47671  -0.47473  -0.47114
  Beta  occ. eigenvalues --   -0.46990  -0.46896  -0.46667  -0.46602  -0.46310
  Beta  occ. eigenvalues --   -0.46162  -0.45104  -0.43554  -0.42557  -0.42426
  Beta  occ. eigenvalues --   -0.42264  -0.42161  -0.41833  -0.41028  -0.40783
  Beta  occ. eigenvalues --   -0.40234  -0.36808  -0.35397  -0.34416  -0.32418
  Beta  occ. eigenvalues --   -0.32228  -0.31708  -0.30824  -0.30781  -0.30520
  Beta  occ. eigenvalues --   -0.30475  -0.30074  -0.29954  -0.29863  -0.29577
  Beta  occ. eigenvalues --   -0.28871  -0.28707  -0.28428  -0.28274  -0.27916
  Beta  occ. eigenvalues --   -0.27887  -0.27765  -0.27441  -0.26841  -0.26061
  Beta  occ. eigenvalues --   -0.20539
  Beta virt. eigenvalues --   -0.18156  -0.18010  -0.17494  -0.17048  -0.16687
  Beta virt. eigenvalues --   -0.15372  -0.15059  -0.14795  -0.13439  -0.12507
  Beta virt. eigenvalues --   -0.12096  -0.11072  -0.10666  -0.09830  -0.07881
  Beta virt. eigenvalues --   -0.05049  -0.03763  -0.03598  -0.03087  -0.02805
  Beta virt. eigenvalues --   -0.02554  -0.02308   0.01684   0.03438   0.04088
  Beta virt. eigenvalues --    0.06904   0.07127   0.07518   0.08108   0.08301
  Beta virt. eigenvalues --    0.08533   0.08919   0.09159   0.10415   0.11109
  Beta virt. eigenvalues --    0.12889   0.14446   0.15166   0.16520   0.16665
  Beta virt. eigenvalues --    0.16993   0.17717   0.18357   0.18820   0.19857
  Beta virt. eigenvalues --    0.21295   0.21780   0.22078   0.22493   0.22653
  Beta virt. eigenvalues --    0.23423   0.24062   0.24559   0.25150   0.25181
  Beta virt. eigenvalues --    0.26048   0.26360   0.27324   0.27651   0.27891
  Beta virt. eigenvalues --    0.28215   0.29119   0.29473   0.30284   0.30656
  Beta virt. eigenvalues --    0.30822   0.30972   0.31133   0.31920   0.32119
  Beta virt. eigenvalues --    0.32578   0.33358   0.33901   0.34547   0.34769
  Beta virt. eigenvalues --    0.35270   0.35874   0.35982   0.36324   0.37342
  Beta virt. eigenvalues --    0.37562   0.37933   0.38270   0.38527   0.39188
  Beta virt. eigenvalues --    0.39588   0.39715   0.40076   0.40468   0.40670
  Beta virt. eigenvalues --    0.41054   0.41540   0.41616   0.42198   0.42652
  Beta virt. eigenvalues --    0.43165   0.43349   0.44011   0.44544   0.44904
  Beta virt. eigenvalues --    0.45457   0.46267   0.47824   0.48444   0.48540
  Beta virt. eigenvalues --    0.49060   0.50218   0.50561   0.51500   0.51756
  Beta virt. eigenvalues --    0.52196   0.52723   0.53975   0.54302   0.54427
  Beta virt. eigenvalues --    0.54806   0.55294   0.55680   0.56070   0.56844
  Beta virt. eigenvalues --    0.57585   0.58468   0.58718   0.59255   0.60190
  Beta virt. eigenvalues --    0.61481   0.61750   0.62965   0.63475   0.63950
  Beta virt. eigenvalues --    0.64878   0.65608   0.66273   0.66745   0.67286
  Beta virt. eigenvalues --    0.68007   0.69101   0.69554   0.69878   0.70393
  Beta virt. eigenvalues --    0.70461   0.70913   0.71495   0.71985   0.72478
  Beta virt. eigenvalues --    0.72882   0.73141   0.73727   0.74077   0.74261
  Beta virt. eigenvalues --    0.75257   0.75543   0.75709   0.76237   0.76958
  Beta virt. eigenvalues --    0.77434   0.78435   0.79088   0.80228   0.81634
  Beta virt. eigenvalues --    0.81929   0.82369   0.83017   0.83643   0.85088
  Beta virt. eigenvalues --    0.85900   0.87388   0.87920   0.88729   0.89366
  Beta virt. eigenvalues --    0.90480   0.90941   0.91726   0.92492   0.93022
  Beta virt. eigenvalues --    0.93493   0.94204   0.95095   0.95399   0.95851
  Beta virt. eigenvalues --    0.96032   0.97505   0.98567   0.98807   0.99049
  Beta virt. eigenvalues --    0.99323   1.00870   1.01972   1.02217   1.02846
  Beta virt. eigenvalues --    1.04188   1.04287   1.04848   1.04919   1.06079
  Beta virt. eigenvalues --    1.07045   1.07610   1.07892   1.08708   1.09074
  Beta virt. eigenvalues --    1.09625   1.10647   1.11193   1.13331   1.14515
  Beta virt. eigenvalues --    1.14646   1.17261   1.18377   1.19600   1.21866
  Beta virt. eigenvalues --    1.23016   1.23273   1.23582   1.24029   1.25022
  Beta virt. eigenvalues --    1.25644   1.26132   1.26725   1.26901   1.27633
  Beta virt. eigenvalues --    1.29249   1.32513   1.32676   1.34047   1.35943
  Beta virt. eigenvalues --    1.37117   1.37912   1.39432   1.40072   1.41100
  Beta virt. eigenvalues --    1.41851   1.42344   1.43429   1.43951   1.44588
  Beta virt. eigenvalues --    1.45751   1.46483   1.47524   1.48097   1.49183
  Beta virt. eigenvalues --    1.49881   1.50059   1.51552   1.52408   1.52472
  Beta virt. eigenvalues --    1.53112   1.54434   1.55431   1.55661   1.56634
  Beta virt. eigenvalues --    1.58277   1.58527   1.59823   1.59977   1.60452
  Beta virt. eigenvalues --    1.61295   1.62094   1.62974   1.63999   1.64889
  Beta virt. eigenvalues --    1.65303   1.66376   1.67267   1.68402   1.68920
  Beta virt. eigenvalues --    1.70322   1.71117   1.71598   1.72282   1.73307
  Beta virt. eigenvalues --    1.74341   1.76087   1.76953   1.77489   1.79207
  Beta virt. eigenvalues --    1.79700   1.81023   1.81921   1.83120   1.84521
  Beta virt. eigenvalues --    1.86843   1.87242   1.87592   1.88033   1.88363
  Beta virt. eigenvalues --    1.89173   1.90412   1.91018   1.91157   1.91913
  Beta virt. eigenvalues --    1.93270   1.94114   1.94228   1.95585   1.96073
  Beta virt. eigenvalues --    1.96206   1.97021   1.97945   1.98937   1.99882
  Beta virt. eigenvalues --    2.00286   2.01056   2.02427   2.03269   2.03451
  Beta virt. eigenvalues --    2.03758   2.05419   2.06208   2.06599   2.08125
  Beta virt. eigenvalues --    2.09000   2.09208   2.09931   2.10365   2.11038
  Beta virt. eigenvalues --    2.11290   2.12554   2.12683   2.12852   2.13585
  Beta virt. eigenvalues --    2.13886   2.14782   2.15448   2.16468   2.16788
  Beta virt. eigenvalues --    2.17648   2.17746   2.18537   2.19786   2.20769
  Beta virt. eigenvalues --    2.21631   2.22344   2.22960   2.23839   2.24302
  Beta virt. eigenvalues --    2.25297   2.26006   2.26217   2.27550   2.27939
  Beta virt. eigenvalues --    2.29001   2.30401   2.31232   2.33366   2.34126
  Beta virt. eigenvalues --    2.35218   2.36894   2.38420   2.38738   2.40140
  Beta virt. eigenvalues --    2.40556   2.42542   2.44453   2.45711   2.45797
  Beta virt. eigenvalues --    2.48354   2.48612   2.49170   2.50520   2.54980
  Beta virt. eigenvalues --    2.55602   2.56370   2.57034   2.58190   2.59212
  Beta virt. eigenvalues --    2.59854   2.63327   2.64500   2.65751   2.66769
  Beta virt. eigenvalues --    2.67748   2.67910   2.68160   2.69178   2.70221
[...]
 .00005017,-0.00059754,-0.00030135,-0.00005302,-0.00030864,-0.00008432,
 0.00006275,0.00053285,0.00005418,0.00002695,-0.00007662,-0.00003401,-0
 .00045781,0.00116428,-0.00030533,-0.00004229,0.00007478,-0.00020323,-0
 .00006573,-0.00030752,0.00080286,-0.00002013,0.00017361,-0.00013710,0.
 00097271,-0.00036602,-0.00572606,-0.00145145,0.00001516,0.00205785,0.0
 0125130,0.00127215,-0.00001908,-0.00029588,0.00037815,0.00060089,-0.00
 005520,-0.00043970,0.00004030,0.00085332,0.00042502,0.00052574,-0.0009
 2555,-0.00095569,-0.00045837,-0.00002093,-0.00021248,-0.00032093,-0.00
 035657,-0.00016040,-0.00001340,0.00038604,0.00080865,0.00010941,-0.000
 06767,-0.00030779,0.00001095,-0.05834676,-0.03926587,-0.13180348,0.047
 72412,-0.00042320,0.00015886,-0.00087733,0.00245000,0.00005215,-0.0013
 3565,-0.00044826,-0.00008623,0.00176859,0.00018040,-0.00006610,-0.0002
 1348,-0.00023419,-0.00016218,-0.00005795,-0.00055194,-0.00013512,-0.00
 020580,0.00041188,0.00022295,0.00002504,-0.00008365,0.00000328,-0.0000
 1370,0.00018190,-0.00061097,0.00071517,-0.00004427,-0.00054031,-0.0002
 5770,-0.00004701,-0.00029105,-0.00004674,0.00007036,0.00048458,0.00002
 853,0.00002103,-0.00006509,-0.00003124,-0.00027177,0.00083418,-0.00056
 139,-0.00012101,0.00011899,-0.00019933,-0.00000932,-0.00024039,0.00072
 658,0.00001419,0.00016985,-0.00012498,0.00047312,0.00054681,-0.0037939
 2,-0.00132681,-0.00033601,0.00174046,0.00087730,0.00135450,-0.00017198
 ,-0.00029569,0.00007847,0.00021396,0.00041707,-0.00036134,0.00045753,0
 .00081040,0.00027052,0.00049368,-0.00086589,-0.00084009,-0.00051649,0.
 00029141,0.00011576,0.00005931,-0.00033313,-0.00011816,-0.00002949,-0.
 00018464,0.00003862,-0.00030242,-0.00002827,-0.00022937,0.00001131,-0.
 04113537,-0.05214652,-0.13577891,0.03101474,0.04451896,-0.00081537,0.0
 0008343,-0.00202306,0.00419790,-0.00007470,-0.00344299,-0.00104575,-0.
 00000854,0.00388046,0.00037167,-0.00006644,-0.00039108,-0.00058837,-0.
 00043030,-0.00007644,-0.00132316,-0.00035423,-0.00047770,0.00101949,0.
 00059042,0.00002154,-0.00018979,0.00001054,-0.00003763,-0.00008500,-0.
 00413412,0.00106059,-0.00008957,-0.00123850,-0.00063305,-0.00017220,-0
 .00065955,-0.00011628,0.00016395,0.00115345,0.00007216,0.00005238,-0.0
 0015081,-0.00006400,-0.00133236,0.00331922,-0.00252526,0.00013904,-0.0
 0012817,-0.00145510,-0.00022845,-0.00121744,0.00289427,-0.00000636,0.0
 0040452,-0.00032500,0.00836420,0.00812772,0.00957108,-0.00346347,-0.00
 117437,0.00307280,0.00249443,0.00270476,-0.00035961,-0.00088416,0.0003
 5701,0.00100814,-0.00036225,-0.00102232,0.00012691,0.00141450,0.000824
 82,0.00146149,-0.00201183,-0.00216893,-0.00230333,0.00078211,-0.000087
 59,-0.00072111,-0.00082469,-0.00020165,-0.00006028,0.00088986,0.001757
 22,0.00002306,-0.00008997,-0.00069402,-0.00000239,-0.17941719,-0.17373
 500,-0.89077351,0.13459190,0.14281807,1.02102622,0.00122498,0.00020741
 ,0.00150962,-0.00009197,0.00094770,0.00514089,-0.00009298,-0.00001705,
 -0.00099972,0.00018398,-0.00016348,-0.00021081,-0.00034073,-0.00006256
 ,-0.00035635,-0.00056561,-0.00004647,-0.00032269,0.00049565,-0.0000063
 3,0.00023913,-0.00012362,0.00001941,-0.00002052,0.00216431,-0.00018784
 ,0.00166085,0.00014413,-0.00066698,-0.00040925,0.00019167,-0.00046558,
 -0.00036724,-0.00009765,0.00049748,0.00023738,0.00003433,-0.00010329,-
 0.00008262,0.00029607,0.00335446,-0.00134330,0.00004534,0.00031004,-0.
 00041274,0.00005292,-0.00076980,0.00071556,-0.00017134,0.00029388,-0.0
 0024407,-0.02367739,-0.02026122,-0.05761770,-0.01137878,-0.00412739,0.
 00071860,0.00021738,0.00276410,0.00071914,-0.00103632,-0.00167089,-0.0
 0182622,0.00155550,-0.00026979,0.00109414,-0.00064768,0.00026868,0.000
 66715,-0.00101430,-0.00149849,-0.00105330,0.00330688,0.00163470,0.0009
 2514,-0.00075124,-0.00021373,-0.00007372,-0.00074287,-0.00042898,-0.00
 036288,-0.00013923,-0.00036603,0.00005427,0.00331979,0.00145555,-0.076
 91526,0.00968452,0.00930014,0.03869239,0.01804849,-0.00004555,0.000251
 72,-0.00072708,0.00374439,0.00148503,-0.00040662,-0.00104709,0.0000654
 8,0.00169110,0.00024050,-0.00017710,-0.00031047,-0.00037052,0.00032444
 ,-0.00049226,-0.00028677,0.00028653,-0.00018381,0.00019279,-0.00037651
 ,0.00030096,-0.00009237,0.00003744,-0.00005071,-0.00055676,-0.01004719
 ,-0.00326717,0.00011730,-0.00010235,-0.00031867,0.00019459,-0.00021434
 ,-0.00060688,-0.00027188,0.00006261,0.00046565,0.00004982,-0.00005130,
 -0.00006393,0.00191126,-0.00127749,0.00565236,-0.00100527,0.00177325,0
 .00263199,0.00086690,0.00063481,-0.00260378,-0.00005685,0.00016993,-0.
 00018033,-0.01749263,-0.02495967,-0.05474524,-0.00437357,-0.00045007,0
 .00155482,0.00161958,0.00047462,0.00118096,-0.00034220,-0.00010074,0.0
 0016111,-0.00219502,-0.00076431,-0.00142482,0.00035385,-0.00212093,0.0
 0071218,-0.00096817,-0.00069042,-0.00188005,0.00047862,0.00061576,0.00
 039743,-0.00054593,-0.00017715,-0.00005724,0.00256731,0.00302171,0.000
 61321,-0.00014710,-0.00053467,0.00006831,-0.00163682,-0.00313517,-0.04
 999382,0.00888130,0.00735407,0.02561613,0.01037915,0.02876548,-0.00017
 286,-0.00032307,-0.00257838,0.00548942,-0.00068826,-0.00880502,-0.0022
 8693,-0.00018645,0.00257689,0.00020518,0.00015622,-0.00014957,-0.00012
 915,-0.00006929,-0.00013128,-0.00001601,-0.00001289,-0.00015153,0.0001
 8467,-0.00004046,0.00007237,-0.00000013,0.00003459,-0.00000090,-0.0012
 1049,-0.00981101,-0.00193324,0.00006549,0.00008922,-0.00023204,-0.0000
 4519,-0.00001770,-0.00027275,-0.00012187,0.00003700,0.00021080,0.00003
 418,0.00000839,-0.00000313,-0.00416345,0.00873045,-0.00995844,0.001243
 40,-0.00118950,-0.00421084,-0.00109706,-0.00260120,0.00552792,0.000046
 31,0.00039039,-0.00041725,-0.02168440,-0.02355946,-0.07428451,-0.00717
 126,-0.00401558,-0.00263447,0.00044962,-0.00016248,0.00082315,-0.00084
 214,-0.00132566,-0.00113541,-0.00285549,-0.00045821,-0.00196452,-0.000
 99957,-0.00018635,0.00282421,-0.00031241,-0.00072706,-0.00600322,0.002
 06873,0.00107027,0.00024088,-0.00042016,0.00007117,-0.00006885,0.00313
 251,0.00328810,0.00146523,-0.00015219,-0.00056296,-0.00006345,-0.06043
 534,-0.03981879,0.21252019,0.00080712,-0.00452374,-0.13835872,0.090271
 77,0.07635193,0.02717150,-0.00068892,-0.00021015,-0.00019102,-0.000239
 16,-0.00014809,-0.00025429,0.00053255,0.00006723,0.00038712,-0.0000892
 1,0.00002917,-0.00002874,0.00249225,-0.00256799,0.00215698,0.00102287,
 0.00046816,0.00027318,0.00019309,-0.00089408,0.00041403,0.00011965,-0.
 00032431,0.00023420,-0.00054467,-0.00086920,-0.00061800,-0.00033356,-0
 .00135922,0.00060516,-0.00510279,-0.00089481,0.00482249,0.00079170,0.0
 0162391,-0.00178920,-0.00017370,-0.00003694,0.00036934,0.00008455,-0.0
 0036354,-0.00025583,0.00010245,-0.00073499,-0.00020974,-0.00015873,0.0
 0049063,0.00037549,0.00003890,-0.00009738,-0.00003116,-0.00016393,0.00
 079130,0.00143491,0.00100763,0.00052369,0.00028143,-0.01477350,-0.0106
 4078,-0.00081460,0.00297016,-0.00165483,-0.00172557,-0.00460712,0.0004
 9991,-0.00504426,0.00041002,0.00210994,-0.00226368,-0.00263539,-0.0043
 4190,0.00124159,0.00043083,-0.00057495,-0.00079368,0.00000246,-0.00010
 861,-0.00036363,0.00141965,0.00067864,0.00130912,-0.00033438,0.0000462
 3,-0.00021091,0.00055188,0.00046026,0.00031573,-0.00027961,-0.00022715
 ,-0.00053709,-0.00032516,-0.00035117,-0.00000050,0.37190765,-0.0009525
 6,-0.00006350,-0.00023956,-0.00031372,-0.00003798,-0.00019359,0.000571
 01,0.00002340,0.00049163,-0.00012146,0.00000400,-0.00004411,0.00012524
 ,-0.01395907,0.01097058,-0.00210382,-0.00254651,0.00085309,-0.00035006
 ,0.00374451,-0.00210000,0.00029315,-0.00060052,0.00028513,0.00001227,0
 .00095093,-0.00004693,-0.00021357,0.00149970,0.00049015,-0.00074255,0.
 00153119,0.00152445,-0.00021872,-0.00097334,0.00010919,-0.00015062,0.0
 0001863,0.00029030,-0.00011200,-0.00040080,-0.00027810,-0.00016064,-0.
 00080165,-0.00023422,-0.00012502,0.00060596,0.00038886,0.00007738,-0.0
 0009013,-0.00002064,0.00155246,0.00011780,0.00115392,-0.00215995,-0.00
 128043,-0.00158255,-0.00438976,-0.01482481,-0.00185628,0.00028001,-0.0
 0888726,-0.01235020,-0.00080861,0.00171396,-0.00147402,0.00257341,0.00
 077594,-0.00219776,-0.00240167,-0.00319634,0.00112453,0.00090355,0.001
 36373,0.00375122,0.00017524,-0.00031206,-0.00069290,0.00001806,-0.0003
 9753,-0.00009950,-0.00025813,0.00006163,-0.00018231,0.00060231,0.00047
 741,0.00050082,-0.00028270,-0.00025583,-0.00059534,-0.00052779,-0.0003
 1122,-0.00014008,-0.15652785,0.14580336,0.00046283,0.00007039,0.000707
 70,-0.00049379,-0.00007347,0.00073266,0.00003316,0.00000068,-0.0011262
 1,-0.00001338,0.00000006,0.00007232,0.00040023,0.00960919,-0.00269948,
 0.00260851,0.00210714,-0.00037020,-0.00039821,-0.00333526,0.00255007,-
 0.00004542,0.00010793,-0.00027939,-0.00076004,-0.00114124,-0.00044952,
 0.00047791,0.00206945,0.00004938,0.00450651,0.00178647,-0.00161722,-0.
 00095853,-0.00166785,0.00178274,-0.00013815,0.00001273,-0.00011609,-0.
 00004777,-0.00067584,0.00075563,-0.00004944,0.00042581,0.00090273,0.00
 015323,0.00019457,-0.00131299,-0.00000373,-0.00002809,0.00006824,0.001
 43208,0.00103922,-0.00087250,-0.00324775,-0.00152013,-0.00169523,-0.00
 010803,-0.00207498,-0.01216196,-0.00078218,-0.01118839,-0.00751880,-0.
 00483446,-0.00054558,-0.00232795,-0.00114048,-0.00052684,-0.00255705,-
 0.00065653,-0.00106694,0.00073987,0.00147691,0.00184621,0.00516510,0.0
 0005379,0.00007547,-0.00038508,0.00118042,0.00042234,0.00134652,-0.000
 02998,0.00005273,-0.00020286,0.00000747,-0.00003707,0.00011999,0.00001
 532,0.00001798,0.00004340,-0.00015936,-0.00015576,-0.00018443,-0.02919
 477,-0.01656816,0.65700098,0.00032160,0.00008039,0.00028715,-0.0000615
 7,0.00000182,0.00022380,-0.00012302,-0.00000884,-0.00041936,0.00002457
 ,-0.00000649,0.00002546,-0.00136062,0.00271743,-0.00089386,0.00077294,
 0.00073589,-0.00023618,-0.00021434,-0.00115987,0.00098047,-0.00005569,
 0.00019955,-0.00026465,-0.00016675,-0.00038547,-0.00009919,0.00032612,
 0.00142276,-0.00018840,0.00189678,0.00081722,-0.00048823,-0.00118818,-
 0.00152349,0.00165277,-0.00003263,0.00000658,-0.00009450,-0.00000014,-
 0.00002376,0.00018511,-0.00001437,0.00032569,0.00026294,0.00007676,-0.
 00011158,-0.00036738,-0.00001777,0.00002507,0.00002442,-0.00010625,0.0
 0008251,-0.00033275,0.00004405,-0.00001022,0.00015092,-0.00499007,-0.0
 0170397,-0.00769531,-0.00008805,0.00046409,0.00039590,-0.00098242,-0.0
 0036713,-0.00043994,-0.00047988,-0.00073421,-0.00059525,0.00010905,0.0
 0013637,0.00025547,0.00001882,-0.00012346,-0.00026620,-0.00002391,0.00
 006659,0.00004856,0.00019113,0.00014633,0.00021451,-0.00000637,0.00000
 986,-0.00003347,-0.00013432,-0.00011473,-0.00009908,0.00006663,0.00006
 192,0.00014230,0.00009358,0.00005177,0.00000865,-0.13463460,0.07228076
 ,-0.19152428,0.12985478,0.00049505,-0.00000822,0.00025030,-0.00000629,
 -0.00000434,0.00020113,-0.00016621,0.00000072,-0.00042549,0.00004267,0
 .00000409,0.00003972,0.00042603,0.00469693,-0.00201752,0.00383764,0.00
 325283,-0.00084488,-0.00066813,-0.00625358,0.00401526,-0.00017021,0.00
 024873,-0.00021323,-0.00001401,-0.00028802,0.00004729,0.00022820,-0.00
 096838,0.00000724,0.00022202,-0.00085470,0.00002990,0.00008065,0.00096
 054,-0.00013099,-0.00000640,-0.00003041,-0.00012708,0.00003659,-0.0001
 6026,0.00032575,0.00012495,0.00038474,0.00050603,0.00008539,-0.0001136
 1,-0.00064407,-0.00002960,0.00001305,0.00002598,-0.00012996,0.00016848
 ,-0.00040435,-0.00012660,0.00005178,-0.00002165,-0.00591961,0.00266501
 ,-0.00669912,0.00026690,-0.00191519,0.00014676,-0.00023779,-0.00036563
 ,0.00007842,-0.00212018,0.00030135,-0.00089559,0.00012549,-0.00052030,
 0.00056201,0.00011448,-0.00030226,0.00000960,-0.00004204,0.00010828,-0
 .00002212,-0.00002523,0.00023403,0.00000744,0.00004035,-0.00001568,0.0
 0000931,-0.00017368,-0.00014705,-0.00013329,0.00009005,0.00008100,0.00
 019276,0.00011778,0.00005353,0.00002491,0.07358992,-0.05372964,0.13119
 934,-0.06622028,0.04926653,-0.00005235,0.00001030,-0.00020800,0.000168
 96,0.00003625,-0.00019156,-0.00007377,-0.00001083,0.00029021,0.0000137
 4,-0.00000424,-0.00001659,-0.00001470,-0.00046328,-0.00220765,-0.00131
 301,-0.00063058,0.00023073,0.00058079,0.00229892,-0.00170023,-0.000027
 08,0.00009506,-0.00003567,0.00019968,0.00025037,0.00009451,-0.00007350
 ,-0.00036425,-0.00022900,-0.00030804,-0.00038561,-0.00090906,0.0003830
 7,0.00034080,-0.00012517,0.00010044,-0.00001474,-0.00009114,0.00001662
 ,0.00024289,-0.00021457,-0.00000277,-0.00005942,-0.00028162,-0.0000376
 6,-0.00010795,0.00039020,-0.00000327,0.00001630,-0.00001499,-0.0004085
 6,-0.00033831,0.00012654,0.00080336,0.00050603,0.00031052,-0.00563936,
 -0.00450596,0.00140466,0.00045394,0.00057191,0.00089880,0.00060156,-0.
 00000330,0.00032990,0.00036926,-0.00014389,0.00132545,0.00070575,0.001
 18116,-0.00076018,-0.00043647,-0.00078990,-0.00080885,-0.00001779,0.00
 002405,0.00006083,-0.00036639,-0.00012246,-0.00021808,0.00001855,-0.00
 001263,0.00003213,-0.00004929,-0.00003353,-0.00003066,0.00001774,0.000
 01542,0.00002356,0.00007262,0.00006415,0.00002355,-0.14317844,0.100750
 52,-0.36331262,0.16889991,-0.11132775,0.39491375,0.00009565,0.00001570
 ,-0.00008029,0.00015898,0.00005241,-0.00012865,-0.00012115,-0.00001223
 ,0.00013414,0.00002687,-0.00000457,-0.00000486,-0.00024720,0.00079528,
 -0.00056506,0.00009238,0.00021127,-0.00018632,0.00013225,-0.00046730,0
 .00027867,-0.00005307,0.00009919,-0.00003636,0.00033467,0.00063780,0.0
 0028050,-0.00003056,-0.00052137,-0.00006307,-0.00080708,-0.00051712,0.
 00045091,0.00004084,0.00037646,-0.00028504,0.00001908,-0.00001224,0.00
 002801,0.00000579,0.00023311,-0.00011384,0.00002442,0.00011880,-0.0000
 7833,0.00001428,-0.00017695,0.00014225,-0.00001411,0.00003328,-0.00000
 922,-0.00052313,-0.00055461,0.00004297,0.00113711,0.00046014,0.0005819
 3,-0.00895570,-0.00345046,0.00542541,-0.00113090,0.00292951,0.00220190
 ,0.00129000,0.00014984,0.00027706,-0.00028709,-0.00012877,0.00061689,0
 .00043019,0.00062791,-0.00024788,-0.00080110,-0.00066855,-0.00172799,-
 0.00002296,0.00004774,0.00033433,-0.00088448,-0.00050860,-0.00096496,0
 .00001664,-0.00001954,0.00011209,-0.00013079,-0.00009861,-0.00018188,0
 .00006748,0.00005572,0.00015092,0.00013737,0.00013655,0.00010955,-0.21
 899386,0.09345634,0.22177792,0.01088415,-0.00386796,-0.02140354,0.2180
 9503,0.00012449,-0.00001837,-0.00010410,0.00023731,-0.00001363,-0.0002
 1196,-0.00013258,0.00000986,0.00018415,0.00003972,0.00000453,-0.000016
 06,0.00050799,-0.00089527,-0.00099106,0.00021229,0.00030747,-0.0000434
 2,-0.00000952,-0.00086236,0.00028018,-0.00003967,0.00003512,0.00006466
 ,0.00007240,-0.00074573,-0.00017649,-0.00000757,-0.00061491,-0.0001620
 2,-0.00062050,-0.00041813,0.00002560,0.00015712,0.00052925,-0.00017128
 ,0.00003787,-0.00001924,-0.00001955,0.00013229,0.00031869,-0.00028875,
 0.00009603,-0.00000452,-0.00023494,-0.00004853,-0.00019721,0.00041895,
 -0.00002420,0.00002388,-0.00001848,-0.00182232,-0.00011335,0.00047918,
 0.00391361,0.00218254,0.00222055,-0.00824856,0.00227206,0.00532272,0.0
 0121963,0.00206328,0.00339320,0.00008222,-0.00077004,-0.00001403,-0.00
 036102,0.00015918,0.00051732,0.00036041,-0.00013138,-0.00029982,-0.001
 10059,-0.00336746,-0.00621031,-0.00017940,0.00019296,0.00030102,0.0001
 9650,0.00066627,0.00024406,0.00003270,-0.00005420,0.00008831,-0.000183
 66,-0.00012866,-0.00029221,0.00007067,0.00008121,0.00018195,0.00030319
 ,0.00011422,0.00016755,0.10154896,-0.05602353,-0.11043210,-0.00713910,
 0.00318564,0.01291448,-0.08942818,0.05223183,-0.00029189,-0.00004824,-
 0.00028745,0.00018488,-0.00000210,-0.00038168,0.00006993,0.00001581,0.
 00052965,-0.00000329,0.00000385,-0.00003721,-0.00060984,-0.00149186,0.
 00080116,-0.00097952,-0.00089838,0.00004032,0.00034564,0.00150908,-0.0
 0057049,0.00002309,-0.00002223,0.00004703,0.00011221,0.00004368,-0.000
 10359,-0.00017043,-0.00037151,0.00000892,-0.00058655,-0.00022195,0.000
 21477,0.00024214,0.00023654,-0.00024438,0.00002144,0.00000593,0.000030
 45,0.00005881,0.00027693,-0.00046020,0.00002423,-0.00031306,-0.0004356
 9,-0.00009450,-0.00002228,0.00070564,0.00000577,0.00000215,-0.00003344
 ,-0.00105330,-0.00032025,0.00095223,0.00252901,0.00100422,0.00115673,0
 .00280266,0.00411298,0.00551833,0.00151443,0.00179020,-0.00111843,0.00
 039837,0.00027284,-0.00094730,0.00067781,0.00044434,0.00027230,-0.0003
 4705,-0.00078813,-0.00041597,-0.00133190,-0.00258495,-0.00430497,-0.00
 003320,-0.00001558,-0.00012507,-0.00019438,-0.00000055,-0.00013408,-0.
 00009994,0.00000289,0.00001876,0.00009620,0.00010013,0.00000333,-0.000
 06575,-0.00004942,-0.00013914,0.00005910,0.00000637,0.00008527,0.17328
 434,-0.08178815,-0.27284775,0.03027967,-0.01377200,-0.02909969,-0.2068
 6818,0.09288268,0.30130160\\-0.00020118,-0.00063390,-0.00026834,0.0016
 6860,-0.00052256,-0.00212947,0.00008284,-0.00046037,0.00282932,0.00027
 061,-0.00001844,0.00054771,0.00043734,-0.00178086,-0.00139548,-0.00120
 474,-0.00079956,0.00046331,-0.00157145,0.00089533,0.00074144,-0.000898
 13,0.00013018,0.00063262,-0.00098995,-0.00230368,-0.00205065,-0.000123
 74,-0.00134442,-0.00072594,-0.00051638,-0.00018581,-0.00019333,0.00003
 315,-0.00074538,0.00001669,0.00009174,-0.00059483,0.00017083,-0.000847
 22,0.00113268,-0.00274187,-0.00078768,0.00023827,-0.00140209,-0.000616
 44,0.00007206,0.00330180,-0.00019411,0.00025506,0.00057513,0.00321556,
 0.00398812,0.01422132,-0.00192773,-0.00126013,-0.00189342,0.00028341,0
 .00037797,0.00171033,-0.00050607,-0.00133568,-0.00207932,-0.00192819,0
 .00056490,-0.00187338,0.00335799,0.00219445,-0.00104494,-0.00063849,-0
 .00076858,-0.00277113,0.00155332,0.00136603,0.00163329,-0.00017965,-0.
 00028738,-0.00017176,0.00180267,0.00143813,0.00120571,-0.00039397,-0.0
 0018277,-0.00016901,-0.00469964,-0.00452240,-0.03430855,0.00440728,0.0
 0433041,0.03051927,0.00042973,-0.00000616,-0.00369993,0.00030525,0.000
 12676,0.00009514,0.00002091,0.00016322,0.00018301,0.00026436,0.0004793
 3,0.00007168\\\@
 The archive entry for this job was punched.


 "THE ACADEMIC HIERARCHY"


 THE PRESIDENT:
   LEAPS TALL BUILDINGS IN A SINGLE BOUND,
     IS MORE POWERFUL THAN A LOCOMOTIVE,
       IS FASTER THAN A SPEEDING BULLET,
         WALKS ON WATER,
           GIVES POLICY TO GOD.

 THE VICE PRESIDENT FOR ACADEMIC AFFAIRS:
   LEAPS SHORT BUILDINGS IN A SINGLE BOUND,
     IS MORE POWERFUL THAN A SWITCH ENGINE,
       IS JUST AS FAST AS A SPEEDING BULLET,
         WALKS ON WATER IF SEA IS CALM,
           TALKS WITH GOD.

 PROFESSOR:
   LEAPS SHORT BUILDINGS WITH A RUNNING START AND FAVORABLE WINDS,
     IS ALMOST AS POWERFUL AS A SWITCH ENGINE,
       CAN FIRE A SPEEDING BULLET,
         WALKS ON WATER IN AN INDOOR SWIMMING POOL,
          TALKS WITH GOD IF SPECIAL REQUEST IS APPROVED.

 ASSOCIATE PROFESSOR:
   BARELY CLEARS A QUONSET HUT,
     LOSES TUG OF WAR WITH LOCOMOTIVE,
       MISFIRES FREQUENTLY,
         SWIMS WELL,
           IS OCCASIONALLY ADDRESSED BY GOD.

 ASSISTANT PROFESSOR:
   MAKES HIGH MARKS ON WALLS WHEN TRYING TO LEAP TALL BUILDINGS,
     IS RUN OVER BY LOCOMOTIVES,
       CAN SOMETIMES HANDLE A GUN WITHOUT INFLICTING SELF INJURY,
         DOG PADDLES,
           TALKS TO ANIMALS.

 GRADUATE STUDENT:
   RUNS INTO BUILDINGS,
     RECOGNIZES LOCOMOTIVES TWO OUT OF THREE TIMES,
       IS NOT ISSUED AMMUNITION,
         CAN STAY AFLOAT WITH A LIFE JACKET,
           TALKS TO WALLS.

 UNDERGRADUATE AND WORK STUDY STUDENT:
   FALLS OVER DOORSTEP WHEN TRYING TO ENTER BUILDINGS,
     SAYS, "LOOK AT THE CHOO-CHOO,"
       WETS HIMSELF WITH A WATER PISTOL,
        PLAYS IN MUD PUDDLES,
          MUMBLES TO HIMSELF.

 DEPARTMENT SECRETARY:
   LIFTS TALL BUILDINGS AND WALKS UNDER THEM,
     KICKS LOCOMOTIVES OFF THE TRACKS,
       CATCHES SPEEDING BULLETS IN HER TEETH AND EATS THEM,
         FREEZES WATER WITH A SINGLE GLANCE,
           IS GOD.
 Job cpu time:       1 days  1 hours 22 minutes 15.1 seconds.
 Elapsed time:       0 days 12 hours 44 minutes 16.7 seconds.
 File lengths (MBytes):  RWF=   5200 Int=      0 D2E=      0 Chk=    142 Scr=      1
 Normal termination of Gaussian 16 at Wed Feb 22 14:24:53 2023.
